LAMMPS data file via write_data, version 2 Aug 2023, timestep = 10000000, units = real

6000 atoms
2 atom types
4000 bonds
1 bond types
2000 angles
1 angle types

0.0954000047279635 55.81748199524462 xlo xhi
0.0954000047279635 55.81748199524462 ylo yhi
0.0954000047279635 55.81748199524462 zlo zhi

Masses

1 15.9994
2 12.0107

Pair Coeffs # lj/cut/coul/long

1 0.156989 3.05
2 0.0536545 2.8

Bond Coeffs # harmonic

1 1028.27 1.16

Angle Coeffs # harmonic

1 55.96 180

Atoms # full

5079 1693 1 -0.35 10.035049627665703 8.823109384711405 7.543038521466491 -1 2 0
4336 1446 1 -0.35 12.636969888158985 7.520409629637871 0.8715907835017694 1 -1 -1
4337 1446 2 0.7 13.696995827414645 7.223944128617936 1.2206445193845366 1 -1 -1
4396 1466 1 -0.35 1.9881647363375632 1.5111053408194013 1.482957196179998 1 6 -1
4397 1466 2 0.7 3.1056146367391753 1.9315215150658518 1.3659842897172774 1 6 -1
5078 1693 2 0.7 9.76323892110081 9.085020676561518 6.438306582413525 -1 2 0
4341 1447 1 -0.35 6.779235700066629 6.276570161816692 7.700658247419135 -1 -1 2
1944 648 1 -0.35 12.904839196061152 5.779420807224352 6.605269855432276 0 0 -2
4340 1447 2 0.7 6.371183577097553 5.350177973974367 8.282191984820683 -1 -1 2
4339 1447 1 -0.35 5.842183170419343 4.47491535047582 8.868790751629492 -1 -1 2
4736 1579 2 0.7 4.513577326296284 1.6823666089423972 9.016454477541597 -1 1 6
3008 1003 2 0.7 1.1645258971804375 2.557161662855059 7.9101806513556125 1 5 1
1943 648 2 0.7 13.065825221242411 4.613982823777041 6.584744576082274 0 0 -2
1942 648 1 -0.35 13.220899299414615 3.4548053208724947 6.52502073157455 0 0 -2
1436 479 2 0.7 4.22586969166881 8.713613586860363 9.210501377224185 2 -2 -3
4398 1466 1 -0.35 4.166686678586339 2.3264046302907415 1.2610890002323443 1 6 -1
3007 1003 1 -0.35 0.8614604891044031 3.072889077846032 8.936687017774496 1 5 1
2224 742 1 -0.35 6.2086237474787405 3.549815238647547 5.9528397315573836 -1 3 3
2225 742 2 0.7 5.821548437088748 2.7168521298524024 5.22367993119294 -1 3 3
1437 479 1 -0.35 3.828786819611491 7.629527738640717 9.148080375329178 2 -2 -3
5500 1834 1 -0.35 5.44501397929647 7.25761584704206 1.363931778083859 -2 1 2
3009 1003 1 -0.35 1.5896342552358342 2.2069349721075358 6.884073714987535 1 5 1
4547 1516 2 0.7 9.82767828336036 2.1134108357313983 8.835665545538047 5 4 -3
4737 1579 1 -0.35 5.545319089127577 1.3531285970278852 8.566610804711203 -1 1 6
1776 592 1 -0.35 8.86328485952141 7.450090442011236 0.9747795616449153 0 7 3
4548 1516 1 -0.35 10.60086528127528 2.2509151100206366 7.972190080593172 5 4 -3
1775 592 2 0.7 9.127394744203302 6.617239724890988 1.7090257024962914 0 7 3
3087 1029 1 -0.35 3.7303804310568225 5.2464045214730595 5.303958122139129 2 0 0
1774 592 1 -0.35 9.571908617671223 5.786690564487318 2.4199787419223444 0 7 3
2226 742 1 -0.35 5.344348790141866 1.8560785311788783 4.581756727599962 -1 3 3
3945 1315 1 -0.35 13.49197473677827 2.856851900784875 3.398046990263334 0 2 2
3086 1029 2 0.7 3.1532746572227413 6.265632645098206 5.292955361946379 2 0 0
5501 1834 2 0.7 5.833538201354208 8.028338250432526 0.5854676326109141 -2 1 2
607 203 1 -0.35 7.160875640881767 0.6104490864481988 1.587815067859005 -4 -5 -3
3085 1029 1 -0.35 2.610599717094323 7.261427304553969 5.165449304352601 2 0 0
4497 1499 1 -0.35 2.177117418193235 6.909944413810496 0.19613494089881556 -1 -1 0
5077 1693 1 -0.35 9.613940643677095 9.383136462566453 5.314774727098894 -1 2 0
3316 1106 1 -0.35 2.645957186966532 12.462243401582965 1.1062232374565444 -3 0 0
1435 479 1 -0.35 4.60156543021369 9.814055431451068 9.179139440456524 2 -2 -3
3317 1106 2 0.7 3.0246185054007957 13.164267108382278 0.3010125870959608 -3 0 0
3264 1088 1 -0.35 13.548262438285093 18.027229288057363 6.145741727323896 -2 -4 0
90 30 1 -0.35 5.256922288793996 9.392066629288724 6.125848169595597 4 1 1
89 30 2 0.7 6.087061205315824 10.21791934747809 6.244552806469773 4 1 1
88 30 1 -0.35 6.830288885753053 11.109614309788848 6.420770959210029 4 1 1
4906 1636 1 -0.35 0.9058458643727579 10.586805110911822 5.363889148556053 -1 1 1
2668 890 1 -0.35 8.208586483256237 11.808936965567218 2.6332601537375684 -1 2 -2
4094 1365 2 0.7 4.841906232892287 12.58978327875498 3.112194476249215 3 1 1
4095 1365 1 -0.35 4.918764752575398 11.471675694027613 3.427451594114884 3 1 1
3109 1037 1 -0.35 2.2676808359674956 12.77658565521672 7.762186701962943 -3 5 1
2670 890 1 -0.35 10.299748173640861 12.730856829572089 2.9789346671558534 -1 2 -2
3190 1064 1 -0.35 9.928136201040758 16.449504177386817 4.192542851231331 -3 1 5
3191 1064 2 0.7 9.484874216749738 16.047578720737405 5.19879012339671 -3 1 5
2669 890 2 0.7 9.273301290859743 12.263518411030924 2.8153400428077977 -1 2 -2
3192 1064 1 -0.35 8.92217759275749 15.701101165134478 6.148534312938012 -3 1 5
4908 1636 1 -0.35 0.9099943981067504 9.45377646852862 7.357596883151585 -1 1 1
863 288 2 0.7 6.503019108985288 15.39653838467819 8.370406144094037 2 -1 -3
862 288 1 -0.35 6.236999819749883 14.401500443909429 7.854417007560656 2 -1 -3
864 288 1 -0.35 6.697387702708866 16.366314821311608 8.895973373038489 2 -1 -3
4093 1365 1 -0.35 4.765711644552631 13.684730566746623 2.760886210354422 3 1 1
3483 1161 1 -0.35 11.029802759549584 13.68999715244041 7.402725938208574 -1 1 -1
1317 439 1 -0.35 10.88135511485672 18.594550344001473 1.3577959899248466 -3 0 2
3482 1161 2 0.7 10.345888121281147 13.021085540952605 6.795356122559671 -1 1 -1
1316 439 2 0.7 10.728089552119267 17.520609035550994 1.0105211604904225 -3 0 2
4907 1636 2 0.7 0.8756120974580787 10.060226105283318 6.379240081973366 -1 1 1
1315 439 1 -0.35 10.435895254226219 16.462404512410473 0.6164484478741031 -3 0 2
4798 1600 1 -0.35 1.4627915277012922 15.220366305289765 5.175624698502265 3 -2 0
4799 1600 2 0.7 1.5197897137401108 15.292287950170907 4.012681956684367 3 -2 0
1214 405 2 0.7 13.455783315548851 11.773707716629124 1.923281039427571 0 3 -1
2998 1000 1 -0.35 3.798163768239509 17.61337712591732 3.187699712512172 4 2 -2
3110 1037 2 0.7 2.3299596451364586 13.678946248934112 8.466202030220641 -3 5 1
1978 660 1 -0.35 7.570404591778854 10.077790241426522 9.04017018851066 0 -2 -6
1109 370 2 0.7 10.572804584930369 18.372917581960202 7.985124852873232 -3 0 1
3000 1000 1 -0.35 4.4815644207619085 16.245617587276755 4.923800879322948 4 2 -2
4800 1600 1 -0.35 1.5971766817581414 15.308094770648959 2.8628038640267586 3 -2 0
3481 1161 1 -0.35 9.65436990255454 12.390986509208043 6.150121106782979 -1 1 -1
3111 1037 1 -0.35 2.545080573890086 14.617227608499956 9.157125892786093 -3 5 1
2999 1000 2 0.7 4.090999948012132 16.897583236643115 4.05190798743231 4 2 -2
4840 1614 1 -0.35 0.12700226369957912 14.174995984225387 0.6276827407616706 0 2 5
3263 1088 2 0.7 13.968117090505789 16.927853305284664 6.153679278297488 -2 -4 0
1110 370 1 -0.35 10.642813998294741 17.531395142525586 8.817951174052682 -3 0 1
4830 1610 1 -0.35 12.401953138441199 11.168153060118637 5.87180975720058 1 -2 5
1215 405 1 -0.35 13.218687014872488 10.93208170150545 2.7227056519505073 0 3 -1
4829 1610 2 0.7 13.00424189812237 10.34872822623006 6.416117116747029 1 -2 5
5347 1783 1 -0.35 13.929365151255984 13.572762368574375 4.230196595670449 -3 -4 1
1213 405 1 -0.35 13.587290697296647 12.676503001025276 1.1864884356811636 0 3 -1
3160 1054 1 -0.35 2.3911067667741617 18.456332998400338 5.588719800340037 3 3 1
4828 1610 1 -0.35 13.64170154460333 9.526317169273204 6.913453809722062 1 -2 5
4057 1353 1 -0.35 7.971971851176831 18.415435789580524 3.4611770397932093 -3 0 -2
48 16 1 -0.35 13.123113010693045 16.777411104564532 3.4663307967591446 1 2 0
3572 1191 2 0.7 13.819369986767965 7.675842025731346 14.6211380643801 -4 2 -4
4546 1516 1 -0.35 9.205271193746725 1.947443498003327 9.776060419227473 5 4 -3
1369 457 1 -0.35 0.38826717033519814 5.871085200021036 18.32894233370843 -3 2 -1
1423 475 1 -0.35 1.8272324541264564 2.8205022095280903 13.438425136250402 1 3 -1
222 74 1 -0.35 0.10792005733964773 1.1476257148715487 16.40835404425417 0 -4 6
955 319 1 -0.35 12.85247150752513 0.7871752722715969 16.741984010009837 1 2 0
4804 1602 1 -0.35 4.557296848521595 0.6988363714724192 12.11329065215302 0 0 1
221 74 2 0.7 0.9673963156559352 0.3689038074081926 16.192965590649823 0 -4 6
12 4 1 -0.35 5.719180106069883 5.234690473318533 16.49963069422345 2 2 -2
4735 1579 1 -0.35 3.491763582310809 2.06284051270855 9.429827734064622 -1 1 6
2866 956 1 -0.35 1.4573975472987148 9.224513671477188 10.4978203816768 -1 4 -1
10 4 1 -0.35 7.031748996804434 4.55563611019427 18.26626910493051 2 2 -2
4585 1529 1 -0.35 11.38900777875271 4.860031513559843 9.766786328641906 -2 -5 0
4586 1529 2 0.7 11.79922355429693 5.397881679975226 10.680472254071612 -2 -5 0
4251 1417 1 -0.35 9.277050951015772 1.452973986230623 16.088605978278174 -3 -2 -1
4249 1417 1 -0.35 6.928588038120778 1.6209325038388176 16.216721652157375 -3 -2 -1
123 41 1 -0.35 9.752819956961337 7.497161404851559 11.582603208465724 0 0 -1
3984 1328 1 -0.35 6.42284322542153 6.405738049398215 13.43860924364043 -4 3 0
1556 519 2 0.7 11.4712692693517 3.207570039172853 13.685021758627029 1 -2 -3
1555 519 1 -0.35 12.309979414497286 3.123914702305024 14.48020163427869 1 -2 -3
4587 1529 1 -0.35 12.233576999601471 5.903970572408167 11.634128985463736 -2 -5 0
11 4 2 0.7 6.3870900445743555 4.924392915265529 17.391651203671323 2 2 -2
2868 956 1 -0.35 1.4332789957772807 6.874210649733101 10.610756889225266 -1 4 -1
479 160 2 0.7 7.651584125783299 3.560662637061165 12.211039617229932 1 0 1
478 160 1 -0.35 7.425931169386121 2.5309842684332677 12.736869088172721 1 0 1
122 41 2 0.7 8.663046840582686 7.752841925645934 11.473788884379651 0 0 -1
480 160 1 -0.35 7.863799046589489 4.569716809519032 11.72737573107075 1 0 1
3983 1328 2 0.7 5.4764682938520535 6.894705373542153 13.034409878743045 -4 3 0
3982 1328 1 -0.35 4.539421744321601 7.314763877408881 12.542486050431885 -4 3 0
956 319 2 0.7 12.118844704607827 0.7581211365051542 17.645300389917498 1 2 0
957 319 1 -0.35 11.475362984186328 0.5803780019412175 18.59636910448815 1 2 0
1557 519 1 -0.35 10.746208109198077 3.303391988964439 12.777478717155477 1 -2 -3
4250 1417 2 0.7 8.117584064400617 1.6144983271175173 16.125766687174202 -3 -2 -1
4088 1363 2 0.7 10.008219893374877 8.251605244857393 15.193071175170557 -4 -1 -1
4089 1363 1 -0.35 9.29070856555127 7.388436378289351 14.900054587530386 -4 -1 -1
1424 475 2 0.7 2.524986607159905 3.211790178568294 12.599084976578613 1 3 -1
1425 475 1 -0.35 3.2354754885159807 3.576218781022176 11.762511896957168 1 3 -1
121 41 1 -0.35 7.525188705131201 8.015221737916798 11.292278810013824 0 0 -1
2867 956 2 0.7 1.390708456095156 8.033147878798982 10.56478220404383 -1 4 -1
3571 1191 1 -0.35 12.767637190994671 7.351391983526502 14.942165868347708 -4 2 -4
4087 1363 1 -0.35 10.625807605977489 9.195226863390717 15.396437085555197 -4 -1 -1
419 140 2 0.7 6.18369170858581 14.312352582978546 15.167877373441536 2 1 -1
3622 1208 1 -0.35 3.216501218075028 17.543564283466655 10.037738106514155 2 -3 2
1833 611 1 -0.35 8.605032319815786 17.94164347776734 17.73019129425665 2 2 -4
1832 611 2 0.7 7.6799742576371814 18.151786929736716 18.346848599940166 2 2 -4
2607 869 1 -0.35 1.3425730899504489 18.49829822102396 11.973409142916015 2 -1 -1
1979 660 2 0.7 7.190326174245088 11.113741792595562 9.41992769142473 0 -2 -6
2130 710 1 -0.35 8.50389712781429 9.708118195947764 18.195630199573746 4 -2 -1
4960 1654 1 -0.35 11.484374944988138 16.124522499236722 13.987293243816017 0 1 0
420 140 1 -0.35 6.63999718176077 15.211242687819384 15.75587643793958 2 1 -1
418 140 1 -0.35 5.796573577403573 13.363332852072904 14.588150125085685 2 1 -1
4411 1471 1 -0.35 11.152664461222404 12.388445133614109 17.065693987409947 4 3 1
3405 1135 1 -0.35 2.058259161247727 16.27919353414426 17.859768355471 1 1 2
4071 1357 1 -0.35 8.578963181745824 11.067824147095573 13.241119088598142 -1 -3 1
2605 869 1 -0.35 0.49003831795976693 17.39723687094808 13.82233269357236 2 -1 -1
3623 1208 2 0.7 3.994756231067968 18.27358053849887 10.523693914112572 2 -3 2
5836 1946 1 -0.35 11.976998755084669 10.403977831250664 9.82175615997769 0 3 4
4426 1476 1 -0.35 2.715615530601569 13.439593755680397 14.808930880984965 3 -3 -1
2912 971 2 0.7 3.7842828623464606 18.352897527579373 14.940853847917241 1 3 -5
4069 1357 1 -0.35 6.674300768085273 9.868065324755218 13.721664590476214 -1 -3 1
2331 777 1 -0.35 13.706422653959754 17.67165808419494 10.659241842784589 -2 0 1
5837 1946 2 0.7 11.065068911730876 10.859555064766631 10.33305094242973 0 3 4
1785 595 1 -0.35 13.727596095366104 13.653084078924195 10.900046383918497 -2 0 1
4413 1471 1 -0.35 12.792653464619661 11.485122021088085 15.70292664467898 4 3 1
2911 971 1 -0.35 4.237806356077221 17.460430197465442 14.342918259264591 1 3 -5
3432 1144 1 -0.35 12.764893481461307 15.464025984247755 16.923190820859126 0 3 -2
4962 1654 1 -0.35 11.17549928290775 13.888156880852023 13.836760244628898 0 1 0
5838 1946 1 -0.35 10.11143002642448 11.31776028785427 10.80292953899775 0 3 4
3431 1144 2 0.7 13.466800211413101 15.883703220773784 17.765982169154437 0 3 -2
5072 1691 2 0.7 4.350146100815115 13.550311571646708 11.695682750047986 2 1 -4
4428 1476 1 -0.35 1.571163128868008 11.738450427454437 15.917358807021502 3 -3 -1
4070 1357 2 0.7 7.622732725276748 10.47238315748833 13.443685870388329 -1 -3 1
4961 1654 2 0.7 11.334539898111698 15.00806462980649 13.940425435656987 0 1 0
580 194 1 -0.35 2.3654807151677213 10.059977560707539 13.503844681600674 -1 -1 3
5071 1691 1 -0.35 3.457140370993723 12.84631081695952 11.660649747580608 2 1 -4
1980 660 1 -0.35 6.8199014733600976 12.178169157665378 9.721869850529114 0 -2 -6
384 128 1 -0.35 8.136965928923225 14.752489690036972 10.861478353683088 3 1 3
4427 1476 2 0.7 2.1282462304829357 12.547234128456127 15.356594950696252 3 -3 -1
5073 1691 1 -0.35 5.24924361070928 14.274544397305688 11.625631383142643 2 1 -4
2606 869 2 0.7 0.9667220588534897 17.91538933415625 12.880961689555226 2 -1 -1
383 128 2 0.7 7.862544137228284 15.698726903620775 11.5127561090982 3 1 3
382 128 1 -0.35 7.651596240946603 16.651799082677968 12.161688168887235 3 1 3
581 194 2 0.7 1.2158599136903714 10.102829693086758 13.3968067727025 -1 -1 3
4412 1471 2 0.7 11.905168213867379 11.913368004751074 16.321239822326554 4 3 1
2330 777 2 0.7 13.714997593173472 18.627725073737132 10.052080490731516 -2 0 1
298 100 1 -0.35 11.980101548474163 6.658383220153424 21.882989753708838 0 3 -6
299 100 2 0.7 12.091368648523861 5.912968807815974 22.76441656060156 0 3 -6
3731 1244 2 0.7 4.430365573573455 8.169143812610567 26.161265892344478 2 1 1
3730 1244 1 -0.35 3.8158178461147934 8.395698221330589 27.135811899537448 2 1 1
300 100 1 -0.35 12.176655475182317 5.1146235290130715 23.634952386601736 0 3 -6
3425 1142 2 0.7 6.0894645639085505 8.068645491929225 22.408851027438637 0 -3 -1
3732 1244 1 -0.35 5.020968342346237 8.059150430541404 25.182453471403893 2 1 1
3424 1142 1 -0.35 7.0634222515200635 7.457937857390025 22.67105243976252 0 -3 -1
4294 1432 1 -0.35 8.544508003426978 2.120601017540304 25.222747305846116 2 1 -2
4295 1432 2 0.7 8.790059168318681 3.1155345979142277 24.64644445809786 2 1 -2
4317 1439 1 -0.35 8.696027594678903 4.672494787854269 20.81695309625952 2 1 2
4710 1570 1 -0.35 3.7816027722514187 1.2776554791614128 20.992971770962672 3 -2 0
2922 974 1 -0.35 1.938941292469245 4.868878156968562 23.864378084213527 0 4 -2
2921 974 2 0.7 1.122182343073669 4.03068758015904 23.801874512535253 0 4 -2
4315 1439 1 -0.35 6.772053955695968 4.197838847782872 22.010797847687446 2 1 2
4316 1439 2 0.7 7.735421323937962 4.472292594794401 21.449140228006236 2 1 2
3426 1142 1 -0.35 5.091921042796368 8.522491123911866 22.077850080393034 0 -3 -1
2495 832 2 0.7 9.097658277617239 7.534622912867963 25.56542717930304 5 2 -1
2496 832 1 -0.35 9.20555931934458 7.247187009453616 26.67508424717372 5 2 -1
2494 832 1 -0.35 8.958553693482084 7.651890387782292 24.423938848642045 5 2 -1
4708 1570 1 -0.35 4.3285446592262025 2.795058824498216 19.324362944968136 3 -2 0
4296 1432 1 -0.35 9.164772727614432 3.9717235381212324 23.972948441529212 2 1 -2
5885 1962 2 0.7 6.356475998070257 5.2623273405512325 26.576245335328974 -2 3 2
5886 1962 1 -0.35 7.327153094382675 4.959832503520469 26.024678986336188 -2 3 2
4327 1443 1 -0.35 0.668522543579611 6.319066169188112 27.10607864641325 -1 3 0
4709 1570 2 0.7 4.079430495053979 2.067558365405084 20.18260484011144 3 -2 0
5233 1745 1 -0.35 1.279083702853047 9.218257484093234 20.199202080406703 4 3 -2
3106 1036 1 -0.35 0.7660732142117921 7.57650113550608 23.04419877835334 1 -1 2
2128 710 1 -0.35 6.9192418466404835 9.35912218903452 19.84723002479027 4 -2 -1
5884 1962 1 -0.35 5.412104086993286 5.705853528763427 27.127131188455685 -2 3 2
684 228 1 -0.35 3.7067348480517586 3.12311115024627 27.758224549244993 1 1 -4
5578 1860 1 -0.35 12.565147356537949 6.3871259622799865 27.78224412064413 4 -2 2
3082 1028 1 -0.35 0.4166538666327714 0.23787898699183518 27.845603753894803 -1 -2 0
3144 1048 1 -0.35 13.986202333796259 2.7651312903452774 24.431744055955903 -2 1 2
2920 974 1 -0.35 0.32327381143620215 3.1961440088547253 23.615473890124775 0 4 -2
3403 1135 1 -0.35 2.2383512475214298 14.938463966735986 19.714604208616898 1 1 2
1261 421 1 -0.35 10.024770694532936 10.360343524483799 21.186848268589873 2 -2 3
5234 1745 2 0.7 2.089610404900715 9.802715612113769 19.599546968215144 4 3 -2
5235 1745 1 -0.35 2.8285122308366746 10.354552960025037 18.909410515782252 4 3 -2
5827 1943 1 -0.35 2.071792339108284 9.720854905376013 24.792477025770534 1 0 1
5828 1943 2 0.7 1.7461485212018972 10.151808106228609 25.844332395719174 1 0 1
4580 1527 2 0.7 2.3723154091690253 17.062588751352344 27.67079325420662 3 -4 2
807 269 1 -0.35 7.125483014144513 10.69108805620591 22.747229820613633 3 -1 5
805 269 1 -0.35 7.022126807077425 10.275860932202892 25.050490283062764 3 -1 5
806 269 2 0.7 7.0106562703177 10.593118776929764 23.926360855943035 3 -1 5
4581 1527 1 -0.35 2.106983565112975 16.800751319834557 26.570963893180096 3 -4 2
1985 662 2 0.7 0.7050131560225343 14.780486854476887 25.154745691490888 -5 1 0
5829 1943 1 -0.35 1.4633354457081367 10.534968284218545 26.887327981213346 1 0 1
2129 710 2 0.7 7.740927564892308 9.510637588825402 19.021516176805882 4 -2 -1
1049 350 2 0.7 4.817270019771698 12.903309742760591 21.54129707034123 2 1 1
1050 350 1 -0.35 4.52002210261154 12.73710303285258 22.679648261399745 2 1 1
1048 350 1 -0.35 5.038888070188876 13.209541820100764 20.457104103638642 2 1 1
4217 1406 2 0.7 7.907493946494411 14.313429417661627 23.09775525155446 -1 1 1
4216 1406 1 -0.35 8.091847355442766 15.416286733528914 22.710614144065758 -1 1 1
4218 1406 1 -0.35 7.853453161146924 13.2098594811807 23.44821445091613 -1 1 1
1645 549 1 -0.35 10.423791881204295 13.32416350365817 24.86447544398716 2 1 2
3065 1022 2 0.7 4.633848521810469 17.405081080787586 22.100185214768906 2 -3 -1
4542 1514 1 -0.35 13.0032097074214 14.399501258460347 23.899964265389166 3 4 -1
4541 1514 2 0.7 12.319835883645661 14.28854683755873 22.983799064242767 3 4 -1
3064 1022 1 -0.35 5.341714613857201 16.644159870762685 21.557914782393745 2 -3 -1
3066 1022 1 -0.35 3.940245518661064 18.052365973312792 22.775899753763266 2 -3 -1
1646 549 2 0.7 10.493573119292375 12.428492056716664 25.574723321011344 2 1 2
4540 1514 1 -0.35 11.71090716873304 14.098438427735562 22.035822110819495 3 4 -1
1647 549 1 -0.35 10.608718017677539 11.463302086057238 26.17659542349762 2 1 2
1263 421 1 -0.35 8.689268240824175 12.040780277996316 20.241166017809643 2 -2 3
2539 847 1 -0.35 10.653222314665793 15.294575231642732 19.303413761210987 -3 1 -1
1262 421 2 0.7 9.397066497735963 11.219994517250955 20.6939849335654 2 -2 3
5141 1714 2 0.7 13.322451104154863 17.83757720600306 21.780542298983406 3 -1 -1
2541 847 1 -0.35 8.331713313766949 15.260799584511524 19.50851700573794 -3 1 -1
2540 847 2 0.7 9.507917247325551 15.27713736384693 19.39958228374948 -3 1 -1
5140 1714 1 -0.35 12.465899238625264 17.08615337998049 21.7775894478406 3 -1 -1
1984 662 1 -0.35 1.519382673691968 14.124451667288414 24.64673301868006 -5 1 0
3447 1149 1 -0.35 0.8069267292397192 15.765177048809482 21.959301056580536 3 -1 2
6 2 1 -0.35 13.21215638068269 11.369511796056841 22.216710313572207 0 5 1
5538 1846 1 -0.35 8.791731884172115 17.546457035539444 25.39021941558605 2 2 -2
5536 1846 1 -0.35 9.115353287806101 17.588312965054694 27.72494091681156 2 2 -2
5537 1846 2 0.7 8.916946221049695 17.60307814730008 26.560212520727838 2 2 -2
793 265 1 -0.35 13.601621317755255 14.489135656224441 27.118382167826255 0 -2 5
1831 611 1 -0.35 6.715714393040312 18.418814664959573 18.906848030681964 2 2 -4
795 265 1 -0.35 13.599681683967777 16.655849909508472 26.36457772194285 0 -2 5
794 265 2 0.7 13.574730514811316 15.57108824104748 26.688295730808107 0 -2 5
3404 1135 2 0.7 2.1737647817235892 15.618213861843767 18.82198754864366 1 1 2
4514 1505 2 0.7 1.0549341375903047 5.514844227710737 34.28803434096269 0 5 0
5580 1860 1 -0.35 11.756063672687063 5.108707306956941 29.623716845556228 4 -2 2
3691 1231 1 -0.35 13.429864849511745 1.259200181171859 35.16675189850845 1 -1 0
4515 1505 1 -0.35 0.39865230531553564 5.665222943932056 33.347722774490045 0 5 0
4984 1662 1 -0.35 13.541885734990423 5.28841275128065 32.651591441289995 1 -1 -2
4329 1443 1 -0.35 2.14658748065008 6.835907913362807 28.81866450295137 -1 3 0
682 228 1 -0.35 2.5551840440921647 1.8304470782690765 29.266341760316195 1 1 -4
2643 881 1 -0.35 11.398593078949773 1.9941262236892385 28.140362000249418 5 2 -2
4513 1505 1 -0.35 1.7344765322233109 5.549755686747603 35.2336394301425 0 5 0
2045 682 2 0.7 2.924252248435229 3.095869281577003 32.73448125680738 1 1 -4
2046 682 1 -0.35 3.9017636560794986 3.373825564423998 32.12070341293426 1 1 -4
4328 1443 2 0.7 1.4336054460547865 6.596022712636169 27.966183988336915 -1 3 0
2044 682 1 -0.35 1.925512633277771 2.8949673428237066 33.260371866850654 1 1 -4
2641 881 1 -0.35 9.856112258523536 1.0489424805267826 29.575263544006635 5 2 -2
4265 1422 2 0.7 8.550030615728659 9.165314768011857 29.534762622972302 2 1 0
4264 1422 1 -0.35 8.028703451338574 8.303774081913705 30.104735477097535 2 1 0
2642 881 2 0.7 10.606998739611571 1.5925452600386252 28.91542072929651 5 2 -2
3692 1231 2 0.7 13.162727187460687 0.8800284510450107 36.225184244937616 1 -1 0
4985 1662 2 0.7 13.771605242573505 5.062251811329396 33.78971148620808 1 -1 -2
683 228 2 0.7 3.1524383724461735 2.513273484162431 28.610216041769622 1 1 -4
5896 1966 1 -0.35 10.077667353622736 4.880596202571567 32.72342380470914 1 2 4
5030 1677 2 0.7 4.139990516278287 7.854506218323275 31.547660247439197 -1 3 3
5897 1966 2 0.7 10.44241719659833 5.885019815601777 32.28354577747014 1 2 4
5844 1948 1 -0.35 7.41667461667866 5.436059345231996 30.573584535613897 1 4 -4
5842 1948 1 -0.35 6.163311826057138 3.6484587856413464 29.70556930932053 1 4 -4
1817 606 2 0.7 6.200066026144589 2.9849499832315387 35.035041390391946 -2 -2 0
1816 606 1 -0.35 7.225777832718851 2.460583803385934 35.25210958742208 -2 -2 0
5898 1966 1 -0.35 10.822327183581598 6.905549091388749 31.84499591028526 1 2 4
5843 1948 2 0.7 6.761916328126891 4.5441412853966305 30.11406182751703 1 4 -4
5621 1874 2 0.7 6.4183516089705455 8.177049567225529 34.41099781456603 -1 -4 3
5029 1677 1 -0.35 4.888627006321722 8.507851637707265 30.908823891884058 -1 3 3
5622 1874 1 -0.35 7.025276891220509 9.169499623906557 34.57774785066981 -1 -4 3
5579 1860 2 0.7 12.195241791609218 5.736643788924731 28.704510553192875 4 -2 2
5620 1874 1 -0.35 5.823584964433368 7.212097399056227 34.21919200115033 -1 -4 3
1818 606 1 -0.35 5.187363684342444 3.4662307704271447 34.90557347583316 -2 -2 0
5031 1677 1 -0.35 3.218902337984696 7.367827763723925 32.069097719105926 -1 3 3
597 199 1 -0.35 12.121342789397705 9.297049094589871 35.249695464362674 2 5 0
2935 979 1 -0.35 1.8896613604660633 2.136233345496801 36.6329492867196 0 1 -2
866 289 2 0.7 12.933664795302013 2.2659587498156055 32.18382515528897 -2 0 1
865 289 1 -0.35 11.860455977067753 2.072001115907903 31.744711693575457 -2 0 1
867 289 1 -0.35 13.969935598849393 2.5469808144725006 32.63182625000967 -2 0 1
265 89 1 -0.35 9.241439653744253 6.038762471041075 36.40942849885495 1 2 0
266 89 2 0.7 10.208273538632918 5.550377343329193 36.007639919692004 1 2 0
267 89 1 -0.35 11.165069166808346 4.983093807611154 35.63649620776237 1 2 0
4986 1662 1 -0.35 13.988082120506133 4.880777721890171 34.93064719135902 1 -1 -2
3693 1231 1 -0.35 12.817387651766268 0.3249523907377728 37.16989574661712 1 -1 0
408 136 1 -0.35 2.4747863794000002 11.894690421677936 29.870946580780323 -2 1 1
5800 1934 1 -0.35 1.337070262691011 10.369886726716862 33.56016582102929 5 -3 1
4449 1483 1 -0.35 0.4650964525375788 14.545260294401709 30.366257518289526 1 2 -1
2560 854 1 -0.35 2.8090224488935296 15.751054708027535 32.558756633945265 -1 0 -1
1655 552 2 0.7 7.142841135192224 18.495830006589358 31.996421952485708 0 2 -1
813 271 1 -0.35 1.9413176307057656 13.037686285712212 35.85617390538023 0 -2 1
203 68 2 0.7 6.695813852902827 16.208390726270725 29.14224807228712 2 7 0
204 68 1 -0.35 6.938155903658142 15.107958726450095 29.239850351232455 2 7 0
202 68 1 -0.35 6.386014588833293 17.310926392704378 29.077654282700614 2 7 0
5801 1934 2 0.7 2.4731463733964345 10.398511801876921 33.65889741438509 5 -3 1
407 136 2 0.7 2.549833049191093 12.712136849161915 29.08389946191425 -2 1 1
4266 1422 1 -0.35 8.98278221400702 10.08333840305147 28.980015378717443 2 1 0
296 99 2 0.7 8.234834590235499 14.478366438664557 33.49392258398765 3 0 2
132 44 1 -0.35 11.146190703278554 14.160659194247375 31.96472397748229 -2 -2 -4
2562 854 1 -0.35 4.9560344386296205 15.653583117339267 31.620865630593297 -1 0 -1
5802 1934 1 -0.35 3.608790822379381 10.556589038597252 33.6730092333488 5 -3 1
1170 390 1 -0.35 11.977498161770919 12.557163401955131 37.10689026165964 -3 0 -3
4579 1527 1 -0.35 2.7758130269734513 17.37028769767069 28.731222548916683 3 -4 2
406 136 1 -0.35 2.517119184799611 13.567781589080711 28.298222494051917 -2 1 1
5360 1787 2 0.7 11.988585804873908 17.381047689551046 35.2201969129332 1 0 1
2985 995 1 -0.35 0.23120425673403233 18.539441333139234 32.657926869418844 -1 -1 -3
812 271 2 0.7 2.313164833088331 14.020275767145895 36.316846643565874 0 -2 1
811 271 1 -0.35 2.6456876092960733 15.068657149369406 36.6575230092457 0 -2 1
596 199 2 0.7 11.306239137752458 9.869269011251886 34.68148531455285 2 5 0
297 99 1 -0.35 8.090841228432236 13.951992857504298 32.46571591937684 3 0 2
1174 392 1 -0.35 4.890311018041621 17.767928655548303 35.19728948065111 3 -2 4
5925 1975 1 -0.35 11.340524030102136 13.36157439136636 28.77728384945463 -2 2 0
595 199 1 -0.35 10.504603679284333 10.429010550330363 34.0724913818787 2 5 0
130 44 1 -0.35 12.259743006605511 16.206259437114955 32.034859065471814 -2 -2 -4
5361 1787 1 -0.35 11.53094885253223 16.261044757669666 35.1786253516799 1 0 1
1654 552 1 -0.35 6.211892484896308 18.021786806905293 32.61197907907881 0 2 -1
1175 392 2 0.7 5.938425241886577 18.177149280318673 35.48415405783318 3 -2 4
1176 392 1 -0.35 6.950536524161538 18.6268808259753 35.81258392492088 3 -2 4
131 44 2 0.7 11.684120423691281 15.204276430150438 31.952503825465886 -2 -2 -4
5924 1975 2 0.7 11.679316435130461 12.302505842608026 29.034199180123576 -2 2 0
2561 854 2 0.7 3.886973325793791 15.634435725784561 32.11438722478552 -1 0 -1
5923 1975 1 -0.35 12.037896154384281 11.217262453240034 29.28117281715652 -2 2 0
295 99 1 -0.35 8.399859381054197 15.006741636101196 34.55722211031113 3 0 2
5359 1787 1 -0.35 12.469213174781535 18.456443999934386 35.230922317303886 1 0 1
1001 334 2 0.7 8.79499904735603 7.161701724561636 41.990595450393585 3 0 -1
1970 657 2 0.7 8.168194028004724 3.299228192808803 45.47201390206107 1 -3 3
1969 657 1 -0.35 7.040692285096368 3.0966330622146834 45.24301271865317 1 -3 3
1971 657 1 -0.35 9.26251791262378 3.5500002175670815 45.566470619566374 1 -3 3
1002 334 1 -0.35 9.117014302636408 7.668179344439882 41.04648950975002 3 0 -1
1000 334 1 -0.35 8.456645881498327 6.620200385977446 42.962309047230484 3 0 -1
3104 1035 2 0.7 6.153637910870603 4.369194806331228 39.01761978615972 3 0 -2
4320 1440 1 -0.35 4.272193623791906 2.20598597127686 43.03966493391468 0 -2 0
705 235 1 -0.35 3.7509556216859914 6.039209644383144 39.568851782820396 2 1 -3
704 235 2 0.7 2.782226433939597 6.6396129267384545 39.319567882058806 2 1 -3
4318 1440 1 -0.35 4.479846401117458 2.546299057651231 40.74812424902742 0 -2 0
4319 1440 2 0.7 4.380818245045973 2.340396967149711 41.873033622801756 0 -2 0
2155 719 1 -0.35 4.573343618277176 7.004034738906002 43.301345448269 0 -1 -1
2156 719 2 0.7 3.8614843597253476 7.586423193653262 42.598829730503375 0 -1 -1
3217 1073 1 -0.35 2.966681411055504 2.4593591320767954 45.96257891221727 0 5 -8
3103 1035 1 -0.35 5.633262942439864 3.949344773446039 38.08976972095578 3 0 -2
1211 404 2 0.7 9.305340011456785 2.2278392985038566 41.45822662156595 0 -2 3
2157 719 1 -0.35 3.115868912304193 8.102564661543195 41.85603196852212 0 -1 -1
703 235 1 -0.35 1.9003153174080665 7.343780835555543 39.04399189745492 2 1 -3
1210 404 1 -0.35 9.462330858045583 2.015712413317268 40.338408579432894 0 -2 3
3512 1171 2 0.7 12.320102278617476 4.464552502990546 43.83723290367446 -4 2 5
3513 1171 1 -0.35 11.663634441531304 4.529686949302511 42.858924997850686 -4 2 5
3105 1035 1 -0.35 6.595624478045327 4.84051471256864 39.99379750482279 3 0 -2
3511 1171 1 -0.35 13.071904025261645 4.457545675744619 44.74273952525726 -4 2 5
1212 404 1 -0.35 9.21390524672548 2.441927320588553 42.57854766387016 0 -2 3
4345 1449 1 -0.35 11.004187581972213 6.227215292556739 38.96386554705952 1 0 -2
4346 1449 2 0.7 11.685346454738335 6.787513648566933 39.67292066565379 1 0 -2
1381 461 1 -0.35 8.764483909607465 3.239244819045116 37.54166724304161 -2 1 2
2937 979 1 -0.35 1.949761795036196 2.5737505052327387 38.913088127281895 0 1 -2
739 247 1 -0.35 6.974429811723285 6.78970418732482 45.403106022316685 0 3 0
2936 979 2 0.7 2.018587126644129 2.3409578868698735 37.78898396191262 0 1 -2
2933 978 2 0.7 13.599469290102407 8.704147315237439 44.80821578645231 3 -3 -5