LAMMPS data file via write_data, version 2 Aug 2023, timestep = 11510000, units = real

6000 atoms
2 atom types
4000 bonds
1 bond types
2000 angles
1 angle types

0 29.5937563712089 xlo xhi
0 29.5937563712089 ylo yhi
0 197.291709141392 zlo zhi

Masses

1 15.9994
2 12.0107

Pair Coeffs # lj/cut/coul/long

1 0.156989 3.05
2 0.0536545 2.8

Bond Coeffs # harmonic

1 1028.27 1.16

Angle Coeffs # harmonic

1 55.96 180

Atoms # full

1635 545 1 -0.35 4.31401679545633 4.112155171677193 2.4340910468626107 2 3 3
1634 545 2 0.7 5.240987640927321 4.524038138311094 1.8450758450253864 2 3 3
1633 545 1 -0.35 6.071418494866817 4.886681644851041 1.1438235494614735 2 3 3
129 43 1 -0.35 2.7912142667886397 1.416482174006647 55.87578004274275 0 2 1
429 143 1 -0.35 2.7126351996395655 6.267432866665909 7.700153251515144 -2 7 1
312 104 1 -0.35 5.767060000781856 1.0080609029388714 4.042493882316144 -1 5 -1
4349 1450 2 0.7 1.0666575021107507 3.1026070031682718 5.078658042114961 1 -1 3
428 143 2 0.7 2.505726254116361 6.880472535724605 6.722229538977563 -2 7 1
427 143 1 -0.35 2.328069073937416 7.498029769870003 5.747687397862664 -2 7 1
4348 1450 1 -0.35 2.1572785966327164 3.183688828452232 4.737028117978143 1 -1 3
3687 1229 1 -0.35 0.13001368036704974 2.523631463363624 64.0095820023444 -1 1 3
3789 1263 1 -0.35 0.4914123464446898 2.399307527110466 24.633689448655986 0 1 -3
5520 1840 1 -0.35 5.62088295267733 2.111200713905581 0.0015979151279439199 5 0 2
1054 352 1 -0.35 5.269253443581981 7.817310022844344 11.507434789305792 4 2 -2
2733 911 1 -0.35 4.427582594208224 6.572193671428654 14.285818272022638 -4 5 1
128 43 2 0.7 3.307990364856671 0.38593199347406965 55.74867616849772 0 2 1
3400 1134 1 -0.35 5.7030126303799005 0.09512023827789878 63.946560025420766 0 5 -1
311 104 2 0.7 6.4952483197559765 0.25942071980419523 4.555783498865101 -1 5 -1
4730 1577 2 0.7 6.169135622416302 4.511610699210642 13.880053843527648 6 -1 -1
4731 1577 1 -0.35 6.582504726745939 5.317450734041783 13.12992347406725 6 -1 -1
194 65 2 0.7 4.506715460985031 0.13466069187593924 11.092633661377882 0 0 2
4644 1548 1 -0.35 7.120972056492722 8.259386546348122 63.32376922512685 2 5 -1
1789 597 1 -0.35 6.873515457468807 5.977882024638769 55.90502952319865 1 -1 3
2173 725 1 -0.35 0.5873813420528059 3.393286333356275 13.175992091510976 2 0 3
2174 725 2 0.7 1.5122082410997322 4.01033050642536 12.887940341865466 2 0 3
193 65 1 -0.35 5.233314434680815 0.8594700843146056 11.648957462272888 0 0 2
5591 1864 2 0.7 1.386618673871984 7.796238288190933 10.88385031447373 2 0 4
2175 725 1 -0.35 2.5056242634554473 4.515848496294913 12.538904927374508 2 0 3
1055 352 2 0.7 4.98972658077341 8.11155111715597 10.391658312173181 4 2 -2
5679 1893 1 -0.35 2.8236827512243017 0.5097911352977531 3.104875601119851 -2 -4 3
1056 352 1 -0.35 4.654950368712772 8.373094412176979 9.316171056072756 4 2 -2
5592 1864 1 -0.35 1.4916336638069205 8.68172245832507 10.154742271275708 2 0 4
5590 1864 1 -0.35 1.3077171173654534 6.875032791995028 11.579449647957246 2 0 4
4729 1577 1 -0.35 5.743425200674936 3.7241708066575385 14.64533402013442 6 -1 -1
2732 911 2 0.7 3.7561761070377906 7.443366219024771 13.963487866356562 -4 5 1
2478 826 1 -0.35 1.7121708162945615 6.640116424710413 16.005714850969632 3 4 -1
2731 911 1 -0.35 2.9191308953289066 8.229970302674017 13.812473676042854 -4 5 1
509 170 2 0.7 2.2695702736211567 4.633505797202054 22.416565330410762 -2 4 -5
590 197 2 0.7 1.8808359285816783 6.344080978617145 18.692615510608736 1 -2 1
510 170 1 -0.35 1.5316818727955568 5.169494159880798 21.761474225320917 -2 4 -5
2195 732 2 0.7 2.578513431415636 2.1868298613129777 15.710506042007559 -3 2 2
2194 732 1 -0.35 3.2409320819252216 1.3836034877914722 15.150182113124059 -3 2 2
3912 1304 1 -0.35 1.2743824259938281 0.24165698582271977 53.475338276052135 7 1 0
591 197 1 -0.35 2.7091067082721993 7.137392178796004 18.82676405458265 1 -2 1
3507 1169 1 -0.35 5.324493246262432 8.045089956895001 17.466910436120074 -1 -4 0
3505 1169 1 -0.35 5.899419985578641 5.804533794627544 17.982645101443822 -1 -4 0
3506 1169 2 0.7 5.583793334853008 6.903107122599119 17.76075757202296 -1 -4 0
877 293 1 -0.35 6.147660015669335 2.270917177863184 17.461238658588474 0 2 1
2799 933 1 -0.35 4.962663071816619 2.7857322809649245 21.382837246742536 -3 5 -4
2040 680 1 -0.35 2.650311628920278 9.281768931243882 23.08294279958458 0 1 1
2039 680 2 0.7 3.4670585847394197 9.129930145837116 22.27000770558176 0 1 1
2038 680 1 -0.35 4.356211767910904 9.028792108089212 21.56180880021754 0 1 1
878 293 2 0.7 5.028873010631213 2.380509392145339 17.68580089431907 0 2 1
879 293 1 -0.35 3.9424749615472234 2.6081933549976046 17.988887584739615 0 2 1
2098 700 1 -0.35 6.676496181100513 5.808401689977426 21.129804381236546 1 -4 1
2099 700 2 0.7 5.9866318556839575 5.951202904470034 22.074992625048814 1 -4 1
2798 933 2 0.7 5.594771423082893 1.9921758849385862 21.937652407116964 -3 5 -4
2797 933 1 -0.35 6.328760121543362 1.3825415612480383 22.617069543013205 -3 5 -4
2100 700 1 -0.35 5.295795280800136 6.052089495387344 23.00779916533484 1 -4 1
5373 1791 1 -0.35 6.444522922890661 8.45877916869704 24.957813726994786 -4 -3 -1
2477 826 2 0.7 0.8394678981984528 6.974567351418077 15.284170341953327 3 4 -1
3788 1263 2 0.7 0.9425992738090531 1.467392190027591 24.05662619107035 0 1 -3
2196 732 1 -0.35 1.884639863494057 2.9715265398506836 16.19745707454366 -3 2 2
508 170 1 -0.35 2.9757713820159712 4.149629467912228 23.198770408860945 -2 4 -5
342 114 1 -0.35 2.5864060926463535 3.932207353432465 32.64510037013109 0 -2 1
282 94 1 -0.35 3.7842946621117486 6.5169993401009805 25.63194497122225 -3 -1 1
281 94 2 0.7 2.767634259588868 6.598357552767916 25.05391274746561 -3 -1 1
280 94 1 -0.35 1.7410077174843834 6.663170371996415 24.493446710623548 -3 -1 1
4082 1361 2 0.7 1.7647639872432765 3.787401756642666 28.20281211787738 2 1 4
4486 1496 1 -0.35 2.414362354494686 8.40195283207841 27.303017291271487 5 -1 0
5371 1791 1 -0.35 4.924592195461835 9.565104592491727 26.354401729320607 -4 -3 -1
5372 1791 2 0.7 5.72285990989953 9.052723875814308 25.66934581995153 -4 -3 -1
340 114 1 -0.35 2.2334214328795277 6.260521277764726 32.35739103798014 0 -2 1
4083 1361 1 -0.35 2.5192021888846887 4.599233039682086 28.59131969353407 2 1 4
341 114 2 0.7 2.4295830728449377 5.115066819198534 32.538068337506644 0 -2 1
2788 930 1 -0.35 7.149932933546834 6.572946489147626 29.510793745177878 2 2 0
4487 1496 2 0.7 2.638289222301555 8.929082531533528 28.340693036584977 5 -1 0
4488 1496 1 -0.35 2.6505172756822355 9.488494483745757 29.351629510121178 5 -1 0
3787 1263 1 -0.35 1.2514327908594778 0.5345735917898302 23.42702147025243 0 1 -3
3343 1115 1 -0.35 6.635718185223674 7.347451893313087 35.20733770620915 -2 -1 7
3345 1115 1 -0.35 6.621723027333813 7.5221163880101045 32.90620645580303 -2 -1 7
5977 1993 1 -0.35 2.82392932834149 8.25521747721068 41.09770729421894 -6 2 -4
5815 1939 1 -0.35 1.2440698575884863 6.405735696474909 35.94790156654185 -1 1 1
5816 1939 2 0.7 2.3987584419848433 6.312040047647027 36.022993232187716 -1 1 1
5817 1939 1 -0.35 3.547647985581585 6.229863426024117 36.213156223276364 -1 1 1
3344 1115 2 0.7 6.714585315451318 7.508541514618624 34.075851844574366 -2 -1 7
5978 1993 2 0.7 3.8135533391115355 7.742523548381627 40.79033423517718 -6 2 -4
2577 859 1 -0.35 3.6961202195929803 1.0762532834925849 39.29066262527095 -1 -3 2
2576 859 2 0.7 2.794728063999263 0.748935787475372 40.02220518519586 -1 -3 2
337 113 1 -0.35 0.022239889646794353 6.739759483184863 45.429792093972175 3 4 0
3264 1088 1 -0.35 5.60299623326189 3.445626825888808 36.58268869343001 -3 -4 0
3263 1088 2 0.7 5.7317678510259595 2.3466291897911757 36.3185069520362 -3 -4 0
2820 940 1 -0.35 6.404602084845592 1.1631911762385228 40.708910479785594 5 2 0
3262 1088 1 -0.35 5.890168313989623 1.1739099793545846 36.18740796138836 -3 -4 0
2575 859 1 -0.35 1.894337590858136 0.47887116340504404 40.68439141049648 -1 -3 2
5979 1993 1 -0.35 4.769662287210064 7.247922829997188 40.31518632150147 -6 2 -4
3826 1276 1 -0.35 3.2785191756930714 8.949240555512622 38.08547388202261 1 0 -1
1790 597 2 0.7 7.177917729506621 6.107525314209676 54.78501948875675 1 -1 3
1202 401 2 0.7 7.15780681535232 6.503664274687507 48.34149945704235 2 -2 2
4234 1412 1 -0.35 4.161007171929422 4.042394143356112 41.747672173355504 -1 -1 -1
1203 401 1 -0.35 7.3755301708047085 7.6191252071959985 48.48561115624358 2 -2 2
4235 1412 2 0.7 5.215715021516328 4.496298138201009 41.94778052237359 -1 -1 -1
4236 1412 1 -0.35 6.23408466952147 4.966632968537786 42.225418745800745 -1 -1 -1
589 197 1 -0.35 0.9640522536867583 5.662672382580685 18.45381650827298 1 -2 1
5356 1786 1 -0.35 0.5625190965732438 2.831691111533215 44.341677335513175 0 2 0
5357 1786 2 0.7 1.4016648901328632 3.2238518565485665 45.01633523366485 0 2 0
5358 1786 1 -0.35 2.284795790334275 3.5952682666545317 45.63729237987054 0 2 0
4399 1467 1 -0.35 5.112960956462159 9.218583840822147 44.74175613868874 2 -4 -1
4400 1467 2 0.7 4.9723330939034085 8.240851118700707 44.19722931225001 2 -4 -1
3615 1205 1 -0.35 0.4437165774047364 6.442308873715997 50.47520797379172 5 -2 0
3467 1156 2 0.7 6.337569880699751 4.8988703512261145 45.23213494916033 -4 0 0
3468 1156 1 -0.35 6.748674137188053 5.971770062243582 45.38133549294504 -4 0 0
4754 1585 2 0.7 3.881107880430778 4.491634189913924 50.024562306817394 3 -1 3
4755 1585 1 -0.35 4.160804297112348 5.433531981770679 50.6143777406368 3 -1 3
4753 1585 1 -0.35 3.553241503992216 3.531946854684768 49.45732780627784 3 -1 3
1201 401 1 -0.35 6.9932097073538335 5.359206240383653 48.261520047682524 2 -2 2
3910 1304 1 -0.35 0.38820701555446213 2.3555866419311204 53.77130158106292 7 1 0
3068 1023 2 0.7 4.256955531129502 8.502360435222457 48.83940913832505 0 2 0
5110 1704 1 -0.35 3.176016905695822 4.153842757506396 61.41424687628719 -5 -2 0
4732 1578 1 -0.35 5.637159644832428 1.8284727111521166 50.9259098093662 -1 2 -1
3069 1023 1 -0.35 4.3758360376236345 7.7010903033637375 48.03809774440914 0 2 0
735 245 1 -0.35 7.326118625610876 1.370333525274748 48.34472663163238 0 -1 9
4401 1467 1 -0.35 4.670764646289905 7.333545987247844 43.53813691425414 2 -4 -1
4437 1479 1 -0.35 4.60216767779411 7.195574029022559 56.91433220263201 0 4 1
4436 1479 2 0.7 4.314803836151477 6.394968894917405 57.70576698308407 0 4 1
5111 1704 2 0.7 2.445063184632949 3.9362261223290638 60.53308032927267 -5 -2 0
3911 1304 2 0.7 0.8120290080466841 1.27161790530613 53.55523654847023 7 1 0
1526 509 2 0.7 2.1061542783297122 0.41193332260981186 50.0439996669657 0 1 -1
1525 509 1 -0.35 1.034632147574171 0.8786737245141716 50.22993687411923 0 1 -1
2162 721 2 0.7 2.9026867124301674 4.2791361596675355 54.16530711429712 3 2 -3
2161 721 1 -0.35 2.858111829649406 5.25874400254349 54.78715598067024 3 2 -3
2163 721 1 -0.35 2.9984263987026134 3.360384108547534 53.457081680163746 3 2 -3
4055 1352 2 0.7 3.506042334830812 8.072441512412354 53.64126380468203 3 3 1
4054 1352 1 -0.35 4.512651277953505 8.509236986325618 54.00657524098762 3 3 1
4056 1352 1 -0.35 2.5219259372669462 7.676999767741847 53.17756928275043 3 3 1
3067 1023 1 -0.35 4.0449270725476385 9.276793702748988 49.688425273296964 0 2 0
4733 1578 2 0.7 5.87558943896575 0.7011008468377198 50.96391956943052 -1 2 -1
3920 1307 2 0.7 5.746945703382632 3.1367884328465947 57.001460504280836 1 4 -2
3919 1307 1 -0.35 5.422917221753529 3.2485975447706417 55.87378612684305 1 4 -2
3613 1205 1 -0.35 0.993994403670384 8.609774908068003 49.91587996416551 5 -2 0
4455 1485 1 -0.35 4.523723227802144 7.4410062434349395 61.447026009627486 2 -1 1
4339 1447 1 -0.35 0.1483418602262627 7.366962563683467 57.648162113390846 -3 -3 2
3921 1307 1 -0.35 6.157431018512743 2.940816113987996 58.094098393653525 1 4 -2
2256 752 1 -0.35 2.244994079090212 5.504963239041834 64.14668100046154 4 -2 2
4029 1343 1 -0.35 5.965322964002903 2.1716818622560536 61.87935146033807 4 3 -2
5437 1813 1 -0.35 3.6304674874929828 2.020230341371737 64.61843036116579 4 -5 -2
2254 752 1 -0.35 0.7372636691571617 4.894438658268612 62.450024251118165 4 -2 2
4340 1447 2 0.7 0.7417087306968391 7.435036881342178 58.68483372941388 -3 -3 2
4027 1343 1 -0.35 6.480244413130623 4.399977553611468 61.516172891855064 4 3 -2
2255 752 2 0.7 1.4848122413360425 5.137814744604881 63.340222891041634 4 -2 2
4453 1485 1 -0.35 2.939073163911916 9.01606929221826 61.84363751751394 2 -1 1
5438 1813 2 0.7 4.31894008159554 2.9651366509651065 64.6130386406185 4 -5 -2
2842 948 1 -0.35 1.062684405655993 0.30467827197369407 61.74074208760732 2 -2 -1
4341 1447 1 -0.35 1.3301435484393433 7.471735165600686 59.67887507688132 -3 -3 2
5112 1704 1 -0.35 1.7653392614379846 3.7677975451608843 59.57744220133748 -5 -2 0
4435 1479 1 -0.35 4.0313994449327994 5.518677758031548 58.393046035015175 0 4 1
4454 1485 2 0.7 3.702308052054613 8.205466771119413 61.59437045908635 2 -1 1
4028 1343 2 0.7 6.189597044101648 3.3132842047820943 61.682194118367605 4 3 -2
3222 1074 1 -0.35 3.752073355047391 9.49256726205483 34.03413904116397 3 5 -1
5439 1813 1 -0.35 5.1472235162304205 3.792390735124966 64.563589493227 4 -5 -2
3466 1156 1 -0.35 5.952977863636489 3.820106569132978 45.1538196840881 -4 0 0
4081 1361 1 -0.35 0.9681875857823323 2.9844708733807144 27.890170745637302 2 1 4
3614 1205 2 0.7 0.6948812662408936 7.525463870003791 50.15159499888149 5 -2 0
414 138 1 -0.35 2.8697139732843553 9.518045625204577 2.2213666657272637 4 3 1
3079 1027 1 -0.35 6.7986528942177165 9.729260818639585 59.335672054120955 2 -1 1
5678 1893 2 0.7 2.8539016820137655 0.12401836426704094 2.005841630410716 -2 -4 3
674 225 2 0.7 3.3777568466863466 6.453761258078233 71.2877224956638 0 -1 2
673 225 1 -0.35 3.4438558310217986 7.306754960113275 70.48854970418091 0 -1 2
2529 843 1 -0.35 1.6897552760733328 7.9963339929338835 66.10859550298329 -1 5 2
84 28 1 -0.35 0.36308646380615345 2.2747495207759636 76.565817840789 -4 -2 1
1473 491 1 -0.35 0.540253049620963 9.131252207294759 70.3972025648885 -2 2 0
1058 353 2 0.7 0.21975495581908158 9.130305420107206 98.39039312375459 -1 5 0
5819 1940 2 0.7 4.954785668458822 0.39677209938510755 110.8443254393597 2 -2 1
1743 581 1 -0.35 2.7681570125532677 2.2378577174221106 73.72673860385386 3 -2 0
2020 674 1 -0.35 5.644145343544137 6.946251677033535 65.7713735950103 0 -4 -4
2021 674 2 0.7 5.28456764629742 6.039528924700847 66.41486042694783 0 -4 -4
675 225 1 -0.35 3.2690062313515336 5.658536833923486 72.13304857499496 0 -1 2
2022 674 1 -0.35 4.834498042277224 5.2035608209652215 67.05466590924458 0 -4 -4
891 297 1 -0.35 6.049241361510327 7.606522354884336 68.68663646816907 0 4 -1
2567 856 2 0.7 5.352848653212929 1.9878811805027887 69.84406209761288 -4 -3 -2
2568 856 1 -0.35 6.470678727113805 2.205059334475598 70.07618279404844 -4 -3 -2
1531 511 1 -0.35 0.6790921077202752 2.353195694970458 67.55015515341879 1 -2 1
1532 511 2 0.7 1.4368433103456129 2.973898871575417 66.96452610997842 1 -2 1
2566 856 1 -0.35 4.259057229733912 1.75282272857569 69.56944788980752 -4 -3 -2
890 297 2 0.7 5.950498346255386 8.655564734689376 69.15835683189566 0 4 -1
1533 511 1 -0.35 2.2507684438145628 3.618904885030595 66.45104188110089 1 -2 1
2528 843 2 0.7 1.27078278833806 7.147145543587063 66.81292725663177 -1 5 2
2527 843 1 -0.35 0.9724167076974032 6.231327881519328 67.48614774693058 -1 5 2
3296 1099 2 0.7 0.4210963251488074 9.329559664631427 75.0194703661241 -2 -1 0
1742 581 2 0.7 3.375167270364111 2.126129424209757 74.733184827376 3 -2 0
5585 1862 2 0.7 0.951297223636503 3.791121275869285 111.42753124152509 -3 3 -1
3295 1099 1 -0.35 1.0129664553746276 9.005969395324447 75.99336761085343 -2 -1 0
1741 581 1 -0.35 3.989366710252266 1.8667847750157722 75.697836005801 3 -2 0
4738 1580 1 -0.35 3.0039515157364627 7.32955359852061 74.77054754502127 -2 0 -3
4739 1580 2 0.7 2.737015447911673 6.276399356715421 74.97162928495834 -2 0 -3
3363 1121 1 -0.35 0.43383661105162474 6.818486861496655 78.98890064212752 -2 0 -3
4786 1596 1 -0.35 0.4001965517229609 4.211589564405905 81.90788796371166 -2 1 0
4787 1596 2 0.7 1.1187653143146412 3.7930792753280196 81.103678146115 -2 1 0
4788 1596 1 -0.35 1.895403605193617 3.3946930749998017 80.31879076265776 -2 1 0
2861 954 2 0.7 0.4387797410488446 5.809734540995049 106.44917030675363 2 5 -4
4740 1580 1 -0.35 2.4027529483465195 5.226429187158926 75.33802118716429 -2 0 -3
5551 1851 1 -0.35 2.4531656990204147 9.711121175316073 125.58274100592804 1 2 1
2185 729 1 -0.35 2.778658182596557 7.632622295949643 81.81343144411682 1 4 4
5787 1929 1 -0.35 7.051005498908621 1.4817739387274753 76.50799843408281 -3 2 0
5343 1781 1 -0.35 4.88112977765792 3.757449347062665 79.94128819698936 -3 1 2
5342 1781 2 0.7 4.328009847666984 4.569531784848438 79.37517558225818 -3 1 2
5341 1781 1 -0.35 3.773124400304493 5.449448618003296 78.82468650808654 -3 1 2
2186 729 2 0.7 1.6655262310758847 7.556111365587218 82.18487748195467 1 4 4
370 124 1 -0.35 5.057008417063886 2.223356942407552 82.71836655917286 2 5 0
371 124 2 0.7 6.00578760004682 2.640291145951786 82.23208779842467 2 5 0
1680 560 1 -0.35 0.8028143506906754 9.057458250391154 86.88155095432462 -2 2 -4
2187 729 1 -0.35 0.5703544197266386 7.512440208254742 82.5604427128995 1 4 4
3261 1087 1 -0.35 5.7662379613265715 8.660780096376909 86.68438797685762 -3 5 -1
3260 1087 2 0.7 5.915337840108442 9.827836218467173 86.5907982541134 -3 5 -1
608 203 2 0.7 6.333749704310185 4.899606591331595 128.24145394029495 -1 -7 -4
849 283 1 -0.35 2.0039138671809775 2.1767109024221556 82.9869634243514 -1 3 -3
848 283 2 0.7 2.0097523368891403 1.7836200373075 84.0736039706964 -1 3 -3
847 283 1 -0.35 1.940025993641975 1.4536415940699088 85.19861990648795 -1 3 -3
1246 416 1 -0.35 2.4319649420948326 6.538391395845371 85.37145133818342 -1 4 4
1247 416 2 0.7 2.619183761256582 5.449130837841459 85.00088919317449 -1 4 4
1248 416 1 -0.35 2.912666798386107 4.389886100730424 84.56972818495235 -1 4 4
5820 1940 1 -0.35 5.981980365868938 0.756273479020347 111.24602098688212 2 -2 1
946 316 1 -0.35 4.9255633035594375 0.16772238110537094 96.12996431958193 3 -3 3
1679 560 2 0.7 1.553992778067372 9.717663131592547 86.29188753534574 -2 2 -4
2215 739 1 -0.35 3.3330337640445777 9.055013578797187 129.47694793767423 -2 0 -3
2158 720 1 -0.35 0.336294054509601 6.258724320946999 71.50970331578102 -1 4 -4
5998 2000 1 -0.35 2.5585547717651043 7.95420870392854 90.51673093335793 0 -1 -5
5999 2000 2 0.7 2.885892548357379 8.07416682630798 89.39765881341029 0 -1 -5
4722 1574 1 -0.35 3.896311025004081 3.902273170057697 89.6181599289973 -2 2 -3
4721 1574 2 0.7 3.9315445367968795 3.049367841173667 88.79309717370755 -2 2 -3
933 311 1 -0.35 1.513436041982567 6.11282691123473 92.71141683246448 -1 2 2
6000 2000 1 -0.35 3.1614234515725865 8.252081525696207 88.27585011725957 0 -1 -5
4720 1574 1 -0.35 4.006630001781138 2.240274646041663 87.93471874633231 -2 2 -3
467 156 2 0.7 3.3631564940223906 4.129509330500409 93.90872099868803 -2 2 2
925 309 1 -0.35 0.9826940933086432 7.877191627170235 95.73357596187931 4 0 -3
948 316 1 -0.35 5.341449652244273 2.0368319530577668 94.81084632942193 3 -3 3
1057 353 1 -0.35 1.05318840752572 8.607069285930704 99.00670504111423 -1 5 0
947 316 2 0.7 5.137278938353332 1.073801593816431 95.45715644394295 3 -3 3
468 156 1 -0.35 3.4396848161518205 3.6131896059501156 92.8962052824644 -2 2 2
931 311 1 -0.35 0.7943791033094717 5.412860733785413 90.60833649424201 -1 2 2
926 309 2 0.7 2.132735062577806 8.054703567568104 95.72869206798963 4 0 -3
932 311 2 0.7 1.1444293018296003 5.778750391758825 91.6574049438153 -1 2 2
5016 1672 1 -0.35 5.184744602364259 6.380717548393582 91.2839400735031 -5 2 0
5405 1802 2 0.7 2.4825356539140704 1.6631675807855766 90.92833169090233 0 1 0
5015 1672 2 0.7 4.745672161599556 6.916386721694605 92.2183965071192 -5 2 0
5014 1672 1 -0.35 4.1348604344723565 7.370649509638611 93.0749575534335 -5 2 0
5404 1802 1 -0.35 3.2673604521418684 0.8650494624541292 90.72378186822186 0 1 0
5406 1802 1 -0.35 1.6441777417596495 2.447362501862269 91.00386414652718 0 1 0
5665 1889 1 -0.35 7.036471033699768 4.2368519499123245 103.09836947883034 -2 2 -2
1806 602 1 -0.35 5.405169292428347 6.116314558216957 96.72639374771278 1 0 2
1805 602 2 0.7 4.344344971197933 6.0680078701357525 97.13622792179044 1 0 2
927 309 1 -0.35 3.263459768183261 8.282760279739582 95.82723843071537 4 0 -3
1158 386 1 -0.35 6.887481597505386 7.250196332870725 93.45686231558419 3 4 3
466 156 1 -0.35 3.232777875685012 4.6744010093237485 94.91595142124602 -2 2 2
1804 602 1 -0.35 3.3417203224056564 6.00535117282011 97.68170515089597 1 0 2
5844 1948 1 -0.35 6.444348647342908 3.3384430195406187 99.32717375757288 1 3 -4
2432 811 2 0.7 6.990812851605802 9.321247431808057 97.22861020069298 -1 -4 2
197 66 2 0.7 1.6326561064946687 1.6183858937215514 107.29647278795737 6 2 -4
4103 1368 2 0.7 6.8049369499501 5.481669133331056 76.71904163144886 -3 1 -2
3582 1194 1 -0.35 0.8897842723547155 0.5127565508942212 102.28679564807241 -6 1 3
3140 1047 2 0.7 7.034572992151553 6.640110509007783 107.51050832482105 4 1 -1
5848 1950 1 -0.35 3.7329427126857215 8.250267370770477 100.55210010474111 1 3 0
5842 1948 1 -0.35 6.828118227197711 1.2902863426838742 100.30607845855953 1 3 -4
5843 1948 2 0.7 6.659093171201033 2.320923518937045 99.8238105313614 1 3 -4
5850 1950 1 -0.35 2.1197218762252485 6.521385117361105 100.59920965329705 1 3 0
631 211 1 -0.35 4.830102139511706 7.674788584228441 127.19046145062146 0 -1 2
2860 954 1 -0.35 0.05322788925992228 5.6412088864750185 107.53658542780408 2 5 -4
5849 1950 2 0.7 2.934696421909732 7.368111941228622 100.58431482549089 1 3 0
4318 1440 1 -0.35 6.901863582724161 9.10418872053645 74.8493611904425 1 0 0
4374 1458 1 -0.35 6.444806159857546 6.313776495594375 100.65926386785323 3 -2 0
3001 1001 1 -0.35 1.7956692464884079 5.169145263289103 123.6086541421956 -4 3 -2
3061 1021 1 -0.35 1.7408716791118841 9.797302060750608 116.63535627421753 0 5 1
3580 1194 1 -0.35 1.050839924457523 2.159248851086017 103.94034236162186 -6 1 3
3581 1194 2 0.7 1.0706956917110866 1.3134672246655 103.13324320852998 -6 1 3
3141 1047 1 -0.35 6.474310809715461 5.914454625031212 106.76370913256292 4 1 -1
5400 1800 1 -0.35 2.577571371448485 5.1707578321063705 128.74962420014313 -1 1 0
560 187 2 0.7 2.448417422922062 8.983456180369327 106.34073412970791 2 2 0
198 66 1 -0.35 2.0863917235387572 0.7001133654683512 106.75307041089016 6 2 -4
4104 1368 1 -0.35 6.361957072385517 4.573763431407395 76.13830083048589 -3 1 -2
609 203 1 -0.35 6.681956919671588 5.665923740463903 129.01979061866732 -1 -7 -4
1569 523 1 -0.35 1.1199122192492106 0.4407917277020436 112.43902780787049 3 -2 -1
196 66 1 -0.35 1.2082610613872842 2.5818161844610916 107.81467670498964 6 2 -4
1567 523 1 -0.35 0.8643779212141649 0.6365751781531297 110.13632751770551 3 -2 -1
5584 1862 1 -0.35 2.063061100068604 4.148631041073281 111.44807532519611 -3 3 -1
2862 954 1 -0.35 0.855612354477983 5.959947129326498 105.37430763390199 2 5 -4
1129 377 1 -0.35 5.260478082915172 5.241400333255183 109.77887638611529 -2 1 -5
1571 524 2 0.7 4.992249196352377 7.648248230804674 112.06728061987263 3 -2 2
959 320 2 0.7 0.4812416571633206 7.335328525379382 110.06733114411502 -1 -6 0
960 320 1 -0.35 0.270928156231752 6.646528482298327 110.93726590111241 -1 -6 0
1130 377 2 0.7 4.794187001608409 4.176462325661298 109.87067879103552 -2 1 -5
1131 377 1 -0.35 4.369739808261912 3.0955404379576423 109.87316747356675 -2 1 -5
561 187 1 -0.35 2.8060717202750665 7.999465744745825 106.89068394727582 2 2 0
1572 524 1 -0.35 4.361238170845882 8.037819108629517 111.1679702323591 3 -2 2
5515 1839 1 -0.35 5.749519892765792 0.23854933046466514 66.80903406402744 -1 -1 0
5958 1986 1 -0.35 6.270183130873215 9.017240151812898 79.57157777784012 2 -5 7
1568 523 2 0.7 1.075443603305085 0.45326205093505106 111.26520407946711 3 -2 -1
5907 1969 1 -0.35 1.7653908537877818 7.154150789600528 114.87308737546572 3 2 -3
958 320 1 -0.35 0.7139039246012453 8.048687193383538 109.16472295343401 -1 -6 0
5666 1889 2 0.7 7.231459196758999 3.657618193638814 104.1131334701941 -2 2 -2
1570 524 1 -0.35 5.593330735317382 7.239768722570878 112.98241223846175 3 -2 2
5906 1969 2 0.7 2.3411748709291658 6.293902589044981 114.35971583830762 3 2 -3
5905 1969 1 -0.35 2.967468282882778 5.433028424844483 113.92187490817277 3 2 -3
3028 1010 1 -0.35 0.2053874820907025 7.433150124535591 120.99824728197383 -3 -2 -2
3108 1036 1 -0.35 6.8286219689825165 8.749014979442963 115.5160807387306 2 0 1
3107 1036 2 0.7 6.558072855892537 8.464852438277276 116.60746048285522 2 0 1
3106 1036 1 -0.35 6.303477984622022 8.282123863997242 117.73638132093625 2 0 1
5246 1749 2 0.7 0.39645476857039497 2.944104549105693 118.81448527521877 -2 5 1
372 124 1 -0.35 7.062123455717114 2.936033991323138 81.79927172004194 2 5 0
3062 1021 2 0.7 2.7882111337689754 9.391691844867692 116.29300567647851 0 5 1
3063 1021 1 -0.35 3.84459658732641 9.091171803375072 115.9273102417854 0 5 1
4216 1406 1 -0.35 0.6021715269409583 6.9178290409100995 126.94180331023814 -2 2 0
875 292 2 0.7 4.767145802933161 4.611880521205118 117.4798829847761 2 -1 2
4102 1368 1 -0.35 7.392997252643582 6.320687750250086 77.30080702844387 -3 1 -2
5399 1800 2 0.7 1.5018482527706312 5.170721780931967 129.28927929928602 -1 1 0
2912 971 2 0.7 3.3620232828362204 1.1149505252213174 125.48489705438614 1 4 -6
4512 1504 1 -0.35 1.0913024031128586 6.101968006054169 117.26285492303549 5 0 -3
874 292 1 -0.35 4.451999692251102 3.9225783484177703 118.3504663891503 2 -1 2
5245 1749 1 -0.35 0.6890246618723145 2.92686783111771 117.72301972560415 -2 5 1
876 292 1 -0.35 5.033040134085757 5.211591911265124 116.50941838064091 2 -1 2
3866 1289 2 0.7 4.589218425286379 9.169021220111993 121.03008862608846 -1 3 -3
5247 1749 1 -0.35 0.0556673894541533 2.9418044454669894 119.96202214544134 -2 5 1
3002 1001 2 0.7 2.51309350892193 4.657323411915237 122.80472502646008 -4 3 -2
3003 1001 1 -0.35 3.211501159487946 4.142861513575306 122.03103518447348 -4 3 -2
5398 1800 1 -0.35 0.38628516306371785 5.037267217061365 129.6404955031214 -1 1 0
3867 1289 1 -0.35 4.108362593192297 8.391415114963602 120.32765246457627 -1 3 -3
2913 971 1 -0.35 2.618028347513302 0.9312096355698303 126.3738121970329 1 4 -6
632 211 2 0.7 4.177191091956976 7.223463768647241 126.35551242650848 0 -1 2
2911 971 1 -0.35 4.033149290726793 1.1036684368342213 124.54501607736117 1 4 -6
633 211 1 -0.35 3.5891559076297956 6.672098761647891 125.53531541298678 0 -1 2
607 203 1 -0.35 6.0741493136509 3.9888230358928234 127.52820982284393 -1 -7 -4
3387 1129 1 -0.35 5.953710322566405 8.598093050889291 130.7358027380809 0 2 1
3385 1129 1 -0.35 4.574762383636578 6.762805662009893 130.88184123305655 0 2 1
3518 1173 2 0.7 6.548891059871403 3.369859600536438 123.85366846222038 5 3 0
3386 1129 2 0.7 5.318919858219976 7.6527494211256695 130.80253783662187 0 2 1
3517 1173 1 -0.35 5.393372184355903 3.4861014584566576 124.09511636953394 5 3 0
4217 1406 2 0.7 0.1449726465530008 7.861751107634481 126.4818757486911 -2 2 0
5325 1775 1 -0.35 5.061765981872296 0.3761048793143515 128.22198662389167 1 2 -3
889 297 1 -0.35 5.974715009463602 9.698198090128571 69.66908716126788 0 4 -1
4319 1440 2 0.7 6.863847757691901 9.695213893601839 75.84101058765225 1 0 0
5620 1874 1 -0.35 6.544957573441231 9.78660508811622 110.17032354518612 -1 -3 2
3465 1155 1 -0.35 3.28826419863936 0.20231755464433832 79.21293829502048 1 -1 1
4406 1469 2 0.7 0.3316172125305915 1.7859955155236147 131.48203496262371 -3 4 0
1852 618 1 -0.35 2.1352507395476663 9.720673162687843 181.80859771129306 -3 -2 1
178 60 1 -0.35 7.243045363253785 8.690299425636532 139.0508908772757 6 -2 0
179 60 2 0.7 6.640975233253976 7.8759586808914035 138.46453925918124 6 -2 0
180 60 1 -0.35 6.0484720611617515 6.960857706752825 138.0600626256592 6 -2 0
3023 1008 2 0.7 5.990408613247814 1.208991759751003 135.52834974999678 2 0 -5
3022 1008 1 -0.35 5.616248858263593 1.7274613260904 136.48742430176307 2 0 -5
3024 1008 1 -0.35 6.2911551698445525 0.6815583774054387 134.56372929547953 2 0 -5
1080 360 1 -0.35 3.4679374189228707 3.8475472795705663 134.163761976852 1 -4 5
1079 360 2 0.7 2.4508467030314662 4.333272499786677 134.17651991606155 1 -4 5
3746 1249 2 0.7 4.3505196980941925 0.011053883962450328 186.4009622738495 -3 0 -4
965 322 2 0.7 2.9255479839557332 3.8588096027715166 137.5955483306082 -4 2 2
964 322 1 -0.35 2.8308331331645964 2.702022418269025 137.66986003804254 -4 2 2
1078 360 1 -0.35 1.4018325809255803 4.773872543579255 134.35668967718723 1 -4 5
1811 604 2 0.7 3.5473424324011806 0.037123487840121094 132.45550989814586 -3 1 -2
1812 604 1 -0.35 3.0401190375199785 0.9462433194141039 132.9953062523832 -3 1 -2
3741 1247 1 -0.35 0.22527466720994063 1.5598764448476283 195.8389782654916 0 0 -2
4405 1469 1 -0.35 0.7624344118179923 2.839623595743191 131.7109780283966 -3 4 0
780 260 1 -0.35 1.404590812642012 8.197648639025983 139.0982360358764 3 -1 0
966 322 1 -0.35 3.1273906757735923 4.9980278239865745 137.49618907988395 -4 2 2
5427 1809 1 -0.35 3.557503207732379 9.046765644690392 135.65620482825358 1 0 1
390 130 1 -0.35 0.10519281765971819 8.562487539022458 194.67374440296672 1 -5 -2
1396 466 1 -0.35 5.0302814227838075 9.008132715044482 195.08991143856292 -2 -3 -2
779 260 2 0.7 1.5237664664049269 7.175916089983647 139.66374829152366 3 -1 0
5645 1882 2 0.7 5.295244967801597 8.49117659924484 143.26461595403825 -1 1 -3
4074 1358 1 -0.35 3.488860903692615 3.0777982544431057 141.62408802471904 0 -4 -4
4073 1358 2 0.7 3.464288284840134 3.964677268717529 142.3606232036245 0 -4 -4
4072 1358 1 -0.35 3.5117546889639377 4.827975813215082 143.14168177883772 0 -4 -4
3601 1201 1 -0.35 0.0027543670681774977 6.501349168051813 144.17784688944488 -2 3 1
4146 1382 1 -0.35 3.7350282442428435 1.640834685339632 147.80739574019435 7 1 -3
5646 1882 1 -0.35 5.541025938059532 7.817172056246608 142.3271993591173 -1 1 -3
4144 1382 1 -0.35 4.404639793089672 3.7493444373534186 148.3958909842036 7 1 -3
4145 1382 2 0.7 4.09876480087929 2.7108429511177055 148.04540996636962 7 1 -3
5644 1882 1 -0.35 4.92979497084756 9.15483915175385 144.1414644943854 -1 1 -3