LAMMPS (2 Aug 2023)
WARNING: Using I/O redirection is unreliable with parallel runs. Better to use the -in switch to read input files. (../lammps.cpp:537)
Reading data file ...
  orthogonal box = (0 0 0) to (29.593756 29.593756 197.29171)
  2 by 2 by 9 MPI processor grid
  reading atoms ...
  6000 atoms
  reading velocities ...
  6000 velocities
  scanning bonds ...
  1 = max bonds/atom
  scanning angles ...
  1 = max angles/atom
  reading bonds ...
  4000 bonds
  reading angles ...
  2000 angles
Finding 1-2 1-3 1-4 neighbors ...
  special bond factors lj:    0        0        0       
  special bond factors coul:  0        0        0       
     2 = max # of 1-2 neighbors
     1 = max # of 1-3 neighbors
     1 = max # of 1-4 neighbors
     2 = max # of special neighbors
  special bonds CPU = 0.002 seconds
  read_data CPU = 0.681 seconds
Step T_hot T_cold
Step Temp Pressure Total_Energy Volume Density x_length z_length Total_Heat_Flux
PPPM initialization ...
  using 12-bit tables for long-range coulomb (../kspace.cpp:342)
  G vector (1/distance) = 0.26835055
  grid = 32 32 135
  stencil order = 5
  estimated absolute RMS force accuracy = 0.00038486703
  estimated relative force accuracy = 1.1590156e-06
  using double precision KISS FFT
  3d grid and FFT values/proc = 13750 4096
Generated 1 of 1 mixed pair_coeff terms from arithmetic mixing rule
Neighbor list info ...
  update: every = 1 steps, delay = 0 steps, check = yes
  max neighbors/atom: 2000, page size: 100000
  master list distance cutoff = 15
  ghost atom cutoff = 15
  binsize = 7.5, bins = 4 4 27
  1 neighbor lists, perpetual/occasional/extra = 1 0 0
  (1) pair lj/cut/coul/long, perpetual
      attributes: half, newton on
      pair build: half/bin/newton
      stencil: half/bin/3d
      bin: standard
Setting up Verlet run ...
  Unit style    : real
  Current step  : 0
  Time step     : 0.5
0 0.0000 0.0000
0 298.200434430169 94.0029399461383 3075.5803961798001183 172786.188053555 0.8458950158969319455 29.593756371208900902 197.29170914139200477 0
Per MPI rank memory allocation (min/avg/max) = 8.206 | 8.227 | 8.243 Mbytes
   Step           Dt            Temp          Press          TotEng         Volume        Density        E_delta    
         0   0.5            298.20043      94.00294       3075.5804      172786.19      0.84589502     0            
4000 298.891839426123 105.062605933938 3075.9233233295299215 172786.188053555 0.8458950158969319455 29.593756371208900902 197.29170914139200477 3.025707501984559844
      4000   0.5            298.89184      105.06261      3075.9233      172786.19      0.84589502     3.0257075    
8000 299.3616776792 291.214529011064 3076.0986676354000338 172786.188053555 0.8458950158969319455 29.593756371208900902 197.29170914139200477 5.9034058144837100457
      8000   0.5            299.36168      291.21453      3076.0987      172786.19      0.84589502     5.9034058    
10000 320.7753 299.9911
12000 301.186706713495 738.974103245666 3075.9398921270699248 172786.188053555 0.8458950158969319455 29.593756371208900902 197.29170914139200477 10.326088610312700311
     12000   0.5            301.18671      738.9741       3075.9399      172786.19      0.84589502     10.326089    
16000 297.655898409228 160.681055065125 3075.9857091024200599 172786.188053555 0.8458950158969319455 29.593756371208900902 197.29170914139200477 13.982085368065499509
     16000   0.5            297.6559       160.68106      3075.9857      172786.19      0.84589502     13.982085    
20000 323.7334 291.1629
20000 298.947309178872 217.567587169751 3075.7823154826301106 172786.188053555 0.8458950158969319455 29.593756371208900902 197.29170914139200477 16.460845717695800516
     20000   0.5            298.94731      217.56759      3075.7823      172786.19      0.84589502     16.460846    
24000 296.081761920136 407.403438573236 3075.8544988575499701 172786.188053555 0.8458950158969319455 29.593756371208900902 197.29170914139200477 21.359019377370099591
     24000   0.5            296.08176      407.40344      3075.8545      172786.19      0.84589502     21.359019    
28000 298.447617832277 754.435944415903 3075.7712710653499926 172786.188053555 0.8458950158969319455 29.593756371208900902 197.29170914139200477 24.598145810122499455
     28000   0.5            298.44762      754.43594      3075.7713      172786.19      0.84589502     24.598146    
30000 298.8482 298.8699
32000 299.997580282523 389.515224463262 3075.7158727705400452 172786.188053555 0.8458950158969329447 29.593756371208900902 197.29170914139200477 27.479562977962800119
     32000   0.5            299.99758      389.51522      3075.7159      172786.19      0.84589502     27.479563    
36000 296.990907603612 276.313127508495 3075.8576882876500349 172786.188053555 0.8458950158969319455 29.593756371208900902 197.29170914139200477 33.180175683276303289
     36000   0.5            296.99091      276.31313      3075.8577      172786.19      0.84589502     33.180176    
40000 295.6458 271.5074
40000 301.994085538188 680.308106707719 3075.5127930000298875 172786.188053555 0.8458950158969319455 29.593756371208900902 197.29170914139200477 36.84679402896230016
     40000   0.5            301.99409      680.30811      3075.5128      172786.19      0.84589502     36.846794    
44000 300.247363243596 -171.54972265853 3075.8351351285400597 172786.188053555 0.8458950158969319455 29.593756371208900902 197.29170914139200477 39.961076742888401725
     44000   0.5            300.24736     -171.54972      3075.8351      172786.19      0.84589502     39.961077    
48000 296.311321564877 -32.6593623385971 3076.0687324473501576 172786.188053555 0.8458950158969319455 29.593756371208900902 197.29170914139200477 42.999452052165402449
     48000   0.5            296.31132     -32.659362      3076.0687      172786.19      0.84589502     42.999452    
50000 318.6956 286.8383
52000 297.456686624441 417.076848165751 3076.206285966789892 172786.188053555 0.8458950158969319455 29.593756371208900902 197.29170914139200477 47.382250289678097488
     52000   0.5            297.45669      417.07685      3076.2063      172786.19      0.84589502     47.38225     
56000 296.408227868476 482.828942143828 3076.159219593259877 172786.188053555 0.8458950158969319455 29.593756371208900902 197.29170914139200477 50.594545804172597059
     56000   0.5            296.40823      482.82894      3076.1592      172786.19      0.84589502     50.594546    
60000 299.4307 296.3455
60000 296.770212176993 597.315171897454 3076.1864800192997791 172786.188053555 0.8458950158969319455 29.593756371208900902 197.29170914139200477 53.639326062920297034
     60000   0.5            296.77021      597.31517      3076.1865      172786.19      0.84589502     53.639326    
64000 298.414864481823 448.442201829219 3075.932648320269891 172786.188053555 0.8458950158969319455 29.593756371208900902 197.29170914139200477 56.673205853585002956
     64000   0.5            298.41486      448.4422       3075.9326      172786.19      0.84589502     56.673206    
68000 298.785401738024 38.3107951038727 3075.9983203381198109 172786.188053555 0.8458950158969319455 29.593756371208900902 197.29170914139200477 60.457637013617500088
     68000   0.5            298.7854       38.310795      3075.9983      172786.19      0.84589502     60.457637    
70000 306.6432 283.9014
72000 297.654190176315 125.66497535171 3075.9455930800199894 172786.188053555 0.8458950158969329447 29.593756371208900902 197.29170914139200477 63.632296548918702683
     72000   0.5            297.65419      125.66498      3075.9456      172786.19      0.84589502     63.632297    
76000 299.227535319495 115.608189045875 3075.9152636963399345 172786.188053555 0.8458950158969319455 29.593756371208900902 197.29170914139200477 66.690580668794993358
     76000   0.5            299.22754      115.60819      3075.9153      172786.19      0.84589502     66.690581    
80000 318.4776 282.1911
80000 299.753623914649 -364.495183422942 3075.847514529179989 172786.188053555 0.8458950158969319455 29.593756371208900902 197.29170914139200477 70.083440374975594978
     80000   0.5            299.75362     -364.49518      3075.8475      172786.19      0.84589502     70.08344     
84000 298.397292728586 52.6422407150969 3075.3341790772201421 172786.188053555 0.8458950158969319455 29.593756371208900902 197.29170914139200477 72.966683541933306856
     84000   0.5            298.39729      52.642241      3075.3342      172786.19      0.84589502     72.966684    
88000 301.425623716321 259.496478185421 3075.3504220223999255 172786.188053555 0.8458950158969319455 29.593756371208900902 197.29170914139200477 75.523766919552500099
     88000   0.5            301.42562      259.49648      3075.3504      172786.19      0.84589502     75.523767    
90000 313.7068 283.2695
92000 300.547489272065 -525.674523664284 3075.4286932745098966 172786.188053555 0.8458950158969329447 29.593756371208900902 197.29170914139200477 78.606139734739002733
     92000   0.5            300.54749     -525.67452      3075.4287      172786.19      0.84589502     78.60614     
96000 300.308142694679 589.9301448614 3075.8238386572397758 172786.188053555 0.8458950158969319455 29.593756371208900902 197.29170914139200477 82.503563576430806847
     96000   0.5            300.30814      589.93014      3075.8238      172786.19      0.84589502     82.503564    
100000 319.8617 273.6062
100000 298.717463550832 369.101025959763 3075.7402342854697963 172786.188053555 0.8458950158969319455 29.593756371208900902 197.29170914139200477 87.261991789163801059
    100000   0.5            298.71746      369.10103      3075.7402      172786.19      0.84589502     87.261992    
104000 296.626391806536 8.14609028529083 3075.9252114163000442 172786.188053555 0.8458950158969319455 29.593756371208900902 197.29170914139200477 91.060516315601503834
    104000   0.5            296.62639      8.1460903      3075.9252      172786.19      0.84589502     91.060516    
108000 298.136971777103 251.618715250269 3075.8089829904502039 172786.188053555 0.8458950158969319455 29.593756371208900902 197.29170914139200477 94.327568571407297782
    108000   0.5            298.13697      251.61872      3075.809       172786.19      0.84589502     94.327569    
110000 311.0064 277.5481
112000 297.390691477638 36.8873700534527 3075.9598111187801805 172786.188053555 0.8458950158969319455 29.593756371208900902 197.29170914139200477 97.377902497273993276
    112000   0.5            297.39069      36.88737       3075.9598      172786.19      0.84589502     97.377902    
116000 299.51202563398 297.165294204915 3075.8131718852000631 172786.188053555 0.8458950158969319455 29.593756371208900902 197.29170914139200477 100.10977899436899463
    116000   0.5            299.51203      297.16529      3075.8132      172786.19      0.84589502     100.10978    
120000 318.1885 274.7850
120000 297.923363914422 90.4585737082839 3075.7043581559701124 172786.188053555 0.8458950158969319455 29.593756371208900902 197.29170914139200477 103.76943726554399916
    120000   0.5            297.92336      90.458574      3075.7044      172786.19      0.84589502     103.76944    
124000 297.807729392573 9.14778216734982 3075.9326091950001683 172786.188053555 0.8458950158969319455 29.593756371208900902 197.29170914139200477 107.9809138180820014
    124000   0.5            297.80773      9.1477822      3075.9326      172786.19      0.84589502     107.98091    
128000 297.688568419178 397.554583718445 3075.9110652896802094 172786.188053555 0.8458950158969319455 29.593756371208900902 197.29170914139200477 111.81511671462999402
    128000   0.5            297.68857      397.55458      3075.9111      172786.19      0.84589502     111.81512    
130000 320.4755 282.3949
132000 295.411943505102 -175.202008229858 3075.7188902887401127 172786.188053555 0.8458950158969319455 29.593756371208900902 197.29170914139200477 114.82874923207799611
    132000   0.5            295.41194     -175.20201      3075.7189      172786.19      0.84589502     114.82875    
136000 299.712501000271 -564.640025349935 3075.8721071487798326 172786.188053555 0.8458950158969319455 29.593756371208900902 197.29170914139200477 117.66316094193300046
    136000   0.5            299.7125      -564.64003      3075.8721      172786.19      0.84589502     117.66316    
140000 305.8574 288.6494
140000 296.29889258397 -360.369308297924 3075.9796554043300603 172786.188053555 0.8458950158969319455 29.593756371208900902 197.29170914139200477 120.73457478618000493
    140000   0.5            296.29889     -360.36931      3075.9797      172786.19      0.84589502     120.73457    
144000 300.049377651082 -61.3015250192501 3075.9881289700401794 172786.188053555 0.8458950158969319455 29.593756371208900902 197.29170914139200477 125.18443523892800329
    144000   0.5            300.04938     -61.301525      3075.9881      172786.19      0.84589502     125.18444    
148000 299.978216239647 -22.0987209929573 3075.8767856171198218 172786.188053555 0.8458950158969319455 29.593756371208900902 197.29170914139200477 128.24315730852600836
    148000   0.5            299.97822     -22.098721      3075.8768      172786.19      0.84589502     128.24316    
150000 314.0913 283.2556
152000 296.892823421065 -267.011603073061 3075.956348799260013 172786.188053555 0.8458950158969319455 29.593756371208900902 197.29170914139200477 131.20354184030000511
    152000   0.5            296.89282     -267.0116       3075.9563      172786.19      0.84589502     131.20354    
156000 296.345461311756 133.216527050036 3075.7568830057498417 172786.188053555 0.8458950158969319455 29.593756371208900902 197.29170914139200477 133.55431124223099459
    156000   0.5            296.34546      133.21653      3075.7569      172786.19      0.84589502     133.55431    
160000 325.2518 279.1922
160000 298.867927189447 460.549389192518 3075.6489229891299146 172786.188053555 0.8458950158969319455 29.593756371208900902 197.29170914139200477 136.92638414188598972
    160000   0.5            298.86793      460.54939      3075.6489      172786.19      0.84589502     136.92638    
164000 297.636552004898 12.154486654431 3075.7859674270498545 172786.188053555 0.8458950158969319455 29.593756371208900902 197.29170914139200477 139.02927818543298599
    164000   0.5            297.63655      12.154487      3075.786       172786.19      0.84589502     139.02928    
168000 300.636298316046 -230.869749183394 3075.8036696215199299 172786.188053555 0.8458950158969319455 29.593756371208900902 197.29170914139200477 141.41842384581499914
    168000   0.5            300.6363      -230.86975      3075.8037      172786.19      0.84589502     141.41842    
170000 314.3949 266.2093
172000 293.526830594715 233.344278810887 3076.0555820300801315 172786.188053555 0.8458950158969319455 29.593756371208900902 197.29170914139200477 145.20503132217200459
    172000   0.5            293.52683      233.34428      3076.0556      172786.19      0.84589502     145.20503    
176000 300.180275239014 116.7731803799 3075.8263844475500264 172786.188053555 0.8458950158969319455 29.593756371208900902 197.29170914139200477 149.78244606591400157
    176000   0.5            300.18028      116.77318      3075.8264      172786.19      0.84589502     149.78245    
180000 327.5252 274.3608
180000 298.202725895579 -326.446793930987 3075.7404117722398951 172786.188053555 0.8458950158969319455 29.593756371208900902 197.29170914139200477 154.44662973472298972
    180000   0.5            298.20273     -326.44679      3075.7404      172786.19      0.84589502     154.44663    
184000 298.523124003244 380.805088702703 3075.9495194336800523 172786.188053555 0.8458950158969319455 29.593756371208900902 197.29170914139200477 157.56217874416898894
    184000   0.5            298.52312      380.80509      3075.9495      172786.19      0.84589502     157.56218    
188000 295.73373738769 240.395039102881 3075.9121094174201971 172786.188053555 0.8458950158969319455 29.593756371208900902 197.29170914139200477 160.0786015824409958
    188000   0.5            295.73374      240.39504      3075.9121      172786.19      0.84589502     160.0786     
190000 322.4853 278.0370
192000 298.187546530865 -96.6291725658209 3075.8611411227298049 172786.188053555 0.8458950158969319455 29.593756371208900902 197.29170914139200477 163.26764454450500352
    192000   0.5            298.18755     -96.629173      3075.8611      172786.19      0.84589502     163.26764    
196000 300.45230940577 -414.520895045562 3075.8715338190399962 172786.188053555 0.8458950158969319455 29.593756371208900902 197.29170914139200477 166.42449739341100212
    196000   0.5            300.45231     -414.5209       3075.8715      172786.19      0.84589502     166.4245     
200000 313.8959 281.5682
200000 296.130094847144 672.121638315044 3076.0473475786297968 172786.188053555 0.8458950158969319455 29.593756371208900902 197.29170914139200477 170.26499161328899845
    200000   0.5            296.13009      672.12164      3076.0473      172786.19      0.84589502     170.26499    
204000 296.645391857006 -143.645618253965 3076.0059219889299129 172786.188053555 0.8458950158969319455 29.593756371208900902 197.29170914139200477 173.8485629251210014
    204000   0.5            296.64539     -143.64562      3076.0059      172786.19      0.84589502     173.84856    
208000 300.812046926949 -260.690371056441 3075.7668531894000807 172786.188053555 0.8458950158969319455 29.593756371208900902 197.29170914139200477 178.39689292177200741
    208000   0.5            300.81205     -260.69037      3075.7669      172786.19      0.84589502     178.39689    
210000 310.3839 279.2391
212000 296.893519363159 -475.052644672535 3075.9862181635198795 172786.188053555 0.8458950158969319455 29.593756371208900902 197.29170914139200477 183.62266033949600796
    212000   0.5            296.89352     -475.05264      3075.9862      172786.19      0.84589502     183.62266    
216000 299.128160135004 -425.630775313878 3076.0751280846197915 172786.188053555 0.8458950158969319455 29.593756371208900902 197.29170914139200477 187.39894361368300224
    216000   0.5            299.12816     -425.63078      3076.0751      172786.19      0.84589502     187.39894    
220000 330.6072 261.3154
220000 300.808935192497 685.741225852466 3076.0841319386699979 172786.188053555 0.8458950158969319455 29.593756371208900902 197.29170914139200477 190.03205920194901068
    220000   0.5            300.80894      685.74123      3076.0841      172786.19      0.84589502     190.03206    
224000 296.698302336774 -677.739661052365 3076.1097979074897921 172786.188053555 0.8458950158969319455 29.593756371208900902 197.29170914139200477 193.44335220632100913
    224000   0.5            296.6983      -677.73966      3076.1098      172786.19      0.84589502     193.44335    
228000 297.618718488685 542.044656472314 3075.9803567024000586 172786.188053555 0.8458950158969319455 29.593756371208900902 197.29170914139200477 196.82618786483499207
    228000   0.5            297.61872      542.04466      3075.9804      172786.19      0.84589502     196.82619    
230000 307.8329 265.6419
232000 295.301785844075 353.156518241572 3076.1304199336800593 172786.188053555 0.8458950158969319455 29.593756371208900902 197.29170914139200477 199.25990502376899371
    232000   0.5            295.30179      353.15652      3076.1304      172786.19      0.84589502     199.25991    
236000 298.408958224228 34.2985097522186 3075.8951663720799843 172786.188053555 0.8458950158969319455 29.593756371208900902 197.29170914139200477 202.19842039575300419
    236000   0.5            298.40896      34.29851       3075.8952      172786.19      0.84589502     202.19842    
240000 334.9883 277.9890
240000 298.886527217558 -281.850866667946 3075.8442371483502029 172786.188053555 0.8458950158969319455 29.593756371208900902 197.29170914139200477 204.90197778633299208
    240000   0.5            298.88653     -281.85087      3075.8442      172786.19      0.84589502     204.90198    
244000 299.327946283589 -289.813447719778 3075.6986275203398691 172786.188053555 0.8458950158969319455 29.593756371208900902 197.29170914139200477 208.16465587732599829
    244000   0.5            299.32795     -289.81345      3075.6986      172786.19      0.84589502     208.16466    
248000 296.844691433155 -142.525476017796 3075.6328177005498219 172786.188053555 0.8458950158969319455 29.593756371208900902 197.29170914139200477 210.83284914029300694
    248000   0.5            296.84469     -142.52548      3075.6328      172786.19      0.84589502     210.83285    
250000 324.5215 276.2244
252000 300.188249362446 -203.597604283739 3075.8149983486700876 172786.188053555 0.8458950158969319455 29.593756371208900902 197.29170914139200477 213.71407645612700321
    252000   0.5            300.18825     -203.5976       3075.815       172786.19      0.84589502     213.71408    
256000 296.871064529518 665.351748031031 3075.8619040199200754 172786.188053555 0.8458950158969319455 29.593756371208900902 197.29170914139200477 216.33879786273800505
    256000   0.5            296.87106      665.35175      3075.8619      172786.19      0.84589502     216.3388     
260000 324.1060 270.5143
260000 297.851870640067 -72.5674514063523 3075.8343371405499056 172786.188053555 0.8458950158969319455 29.593756371208900902 197.29170914139200477 218.69209324258599736
    260000   0.5            297.85187     -72.567451      3075.8343      172786.19      0.84589502     218.69209    
264000 297.918400776308 -192.799249630681 3075.7506151194597805 172786.188053555 0.8458950158969319455 29.593756371208900902 197.29170914139200477 221.3986850093479859
    264000   0.5            297.9184      -192.79925      3075.7506      172786.19      0.84589502     221.39869    
268000 299.707325132625 278.896156310331 3075.9244357122602196 172786.188053555 0.8458950158969319455 29.593756371208900902 197.29170914139200477 224.75075900015099251
    268000   0.5            299.70733      278.89616      3075.9244      172786.19      0.84589502     224.75076    
270000 326.5795 274.9194
272000 298.806884850075 580.63045721716 3075.906798279099803 172786.188053555 0.8458950158969319455 29.593756371208900902 197.29170914139200477 229.12465100441099253
    272000   0.5            298.80688      580.63046      3075.9068      172786.19      0.84589502     229.12465    
276000 300.599698377759 -261.833541997406 3075.7996574932899421 172786.188053555 0.8458950158969319455 29.593756371208900902 197.29170914139200477 233.58652688612900761
    276000   0.5            300.5997      -261.83354      3075.7997      172786.19      0.84589502     233.58653    
280000 336.3508 266.9555
280000 297.951283566381 -126.5198214017 3075.7044747870099854 172786.188053555 0.8458950158969319455 29.593756371208900902 197.29170914139200477 236.42151991700200142
    280000   0.5            297.95128     -126.51982      3075.7045      172786.19      0.84589502     236.42152    
284000 297.086389747548 282.809337321833 3075.7279525789899708 172786.188053555 0.8458950158969319455 29.593756371208900902 197.29170914139200477 238.90231093355200187
    284000   0.5            297.08639      282.80934      3075.728       172786.19      0.84589502     238.90231    
288000 302.419640301722 473.675136064945 3075.3394846327200867 172786.188053555 0.8458950158969329447 29.593756371208900902 197.29170914139200477 241.33396007186399856
    288000   0.5            302.41964      473.67514      3075.3395      172786.19      0.84589502     241.33396    
290000 343.1854 270.4809
292000 301.317209559432 417.843591373477 3075.7845172140300747 172786.188053555 0.8458950158969319455 29.593756371208900902 197.29170914139200477 245.27976493046901396
    292000   0.5            301.31721      417.84359      3075.7845      172786.19      0.84589502     245.27976    
296000 299.574059119913 189.860336063018 3075.6166921171197828 172786.188053555 0.8458950158969319455 29.593756371208900902 197.29170914139200477 248.6871439863749913
    296000   0.5            299.57406      189.86034      3075.6167      172786.19      0.84589502     248.68714    
300000 319.4785 273.0494
300000 296.783434932813 217.601209607195 3075.9140826415600714 172786.188053555 0.8458950158969319455 29.593756371208900902 197.29170914139200477 252.17398816825300401
    300000   0.5            296.78343      217.60121      3075.9141      172786.19      0.84589502     252.17399    
304000 296.923775763423 455.465711863633 3075.9187912813399635 172786.188053555 0.8458950158969319455 29.593756371208900902 197.29170914139200477 255.45501625190999562
    304000   0.5            296.92378      455.46571      3075.9188      172786.19      0.84589502     255.45502    
308000 298.120405489033 447.540445676607 3075.9041276665998339 172786.188053555 0.8458950158969319455 29.593756371208900902 197.29170914139200477 258.20815950654002791
    308000   0.5            298.12041      447.54045      3075.9041      172786.19      0.84589502     258.20816    
310000 327.5118 281.7125
312000 300.451907827085 359.93839498561 3075.7911649467901043 172786.188053555 0.8458950158969319455 29.593756371208900902 197.29170914139200477 261.42254778282301686
    312000   0.5            300.45191      359.93839      3075.7912      172786.19      0.84589502     261.42255    
316000 297.825285443854 -173.222891728046 3075.6857719728200209 172786.188053555 0.8458950158969319455 29.593756371208900902 197.29170914139200477 264.35100648383502175
    316000   0.5            297.82529     -173.22289      3075.6858      172786.19      0.84589502     264.35101    
320000 336.1989 269.7689
320000 297.451788902466 145.357515128992 3075.9307433727799435 172786.188053555 0.8458950158969329447 29.593756371208900902 197.29170914139200477 267.70703240786900778
    320000   0.5            297.45179      145.35752      3075.9307      172786.19      0.84589502     267.70703    
324000 297.697256184534 121.23483531289 3076.0610563696900499 172786.188053555 0.8458950158969319455 29.593756371208900902 197.29170914139200477 271.2935141067459881
    324000   0.5            297.69726      121.23484      3076.0611      172786.19      0.84589502     271.29351    
328000 301.143372842303 383.457859292134 3076.1388852442501047 172786.188053555 0.8458950158969319455 29.593756371208900902 197.29170914139200477 274.19200187620600673
    328000   0.5            301.14337      383.45786      3076.1389      172786.19      0.84589502     274.192      
330000 326.2312 263.7423
332000 297.568930465992 383.036286067184 3076.0685853474301439 172786.188053555 0.8458950158969319455 29.593756371208900902 197.29170914139200477 278.57098408145998292
    332000   0.5            297.56893      383.03629      3076.0686      172786.19      0.84589502     278.57098    
336000 295.871192457867 539.897917443537 3076.1380213340999035 172786.188053555 0.8458950158969319455 29.593756371208900902 197.29170914139200477 280.96220198877801977
    336000   0.5            295.87119      539.89792      3076.138       172786.19      0.84589502     280.9622     
340000 346.1176 258.9556
340000 298.732680921361 -39.5380794860889 3076.1181762023102237 172786.188053555 0.8458950158969319455 29.593756371208900902 197.29170914139200477 283.56001421722697842
    340000   0.5            298.73268     -39.538079      3076.1182      172786.19      0.84589502     283.56001    
344000 295.899446392874 445.459449318539 3076.0850083957598144 172786.188053555 0.8458950158969319455 29.593756371208900902 197.29170914139200477 286.90661882340998545
    344000   0.5            295.89945      445.45945      3076.085       172786.19      0.84589502     286.90662    
348000 297.240353701921 239.675725054614 3075.9415194983598667 172786.188053555 0.8458950158969319455 29.593756371208900902 197.29170914139200477 289.66812673796601985
    348000   0.5            297.24035      239.67573      3075.9415      172786.19      0.84589502     289.66813    
350000 334.7680 263.4091
352000 302.850192664168 -60.6576947908857 3075.5445097897300002 172786.188053555 0.8458950158969319455 29.593756371208900902 197.29170914139200477 292.71563121505198524
    352000   0.5            302.85019     -60.657695      3075.5445      172786.19      0.84589502     292.71563    
356000 300.705795283462 196.668546689742 3075.5924483129001601 172786.188053555 0.8458950158969319455 29.593756371208900902 197.29170914139200477 295.77038586207402204
    356000   0.5            300.7058       196.66855      3075.5924      172786.19      0.84589502     295.77039    
360000 335.4214 273.4325
360000 299.565491466129 342.209152752008 3075.8051255996902 172786.188053555 0.8458950158969319455 29.593756371208900902 197.29170914139200477 299.73521605423002256
    360000   0.5            299.56549      342.20915      3075.8051      172786.19      0.84589502     299.73522    
364000 298.575325108063 522.414365495095 3075.7311210918701363 172786.188053555 0.8458950158969319455 29.593756371208900902 197.29170914139200477 302.25279991569698268
    364000   0.5            298.57533      522.41437      3075.7311      172786.19      0.84589502     302.2528     
368000 299.338856829052 -431.096822545407 3075.6948586831399552 172786.188053555 0.8458950158969319455 29.593756371208900902 197.29170914139200477 305.16695118539502118
    368000   0.5            299.33886     -431.09682      3075.6949      172786.19      0.84589502     305.16695    
370000 329.0338 258.5997
372000 300.418846992799 -224.373731466053 3075.8082466569198914 172786.188053555 0.8458950158969329447 29.593756371208900902 197.29170914139200477 308.6731022165869831
    372000   0.5            300.41885     -224.37373      3075.8082      172786.19      0.84589502     308.6731     
376000 302.864993949025 308.722581036637 3075.546348810640211 172786.188053555 0.8458950158969319455 29.593756371208900902 197.29170914139200477 311.11205129430902616
    376000   0.5            302.86499      308.72258      3075.5463      172786.19      0.84589502     311.11205    
380000 328.0179 264.5641
380000 295.652651694728 -312.79480532384 3075.876190748369936 172786.188053555 0.8458950158969319455 29.593756371208900902 197.29170914139200477 313.92409795711097331
    380000   0.5            295.65265     -312.79481      3075.8762      172786.19      0.84589502     313.9241     
384000 299.51134002783 -191.227376744243 3075.777947809699981 172786.188053555 0.8458950158969319455 29.593756371208900902 197.29170914139200477 317.8880725906429916
    384000   0.5            299.51134     -191.22738      3075.7779      172786.19      0.84589502     317.88807    
388000 297.937024811771 24.302082621164 3075.8745563291199687 172786.188053555 0.8458950158969329447 29.593756371208900902 197.29170914139200477 321.17515055922598322
    388000   0.5            297.93702      24.302083      3075.8746      172786.19      0.84589502     321.17515    
390000 345.6252 268.6958
392000 300.158527771139 14.3376077944671 3075.8632799172701198 172786.188053555 0.8458950158969319455 29.593756371208900902 197.29170914139200477 323.34016388759300753
    392000   0.5            300.15853      14.337608      3075.8633      172786.19      0.84589502     323.34016    
396000 296.514718033528 -132.960645567314 3076.2524715637000554 172786.188053555 0.8458950158969319455 29.593756371208900902 197.29170914139200477 326.52481009472501228
    396000   0.5            296.51472     -132.96065      3076.2525      172786.19      0.84589502     326.52481    
400000 319.3730 274.8313
400000 299.425846706517 -1101.67717062601 3075.8421857823000209 172786.188053555 0.8458950158969319455 29.593756371208900902 197.29170914139200477 330.09523983246799617
    400000   0.5            299.42585     -1101.6772      3075.8422      172786.19      0.84589502     330.09524    
404000 301.675124978381 -120.948521211216 3075.8006888734398672 172786.188053555 0.8458950158969319455 29.593756371208900902 197.29170914139200477 333.0877906499010237
    404000   0.5            301.67512     -120.94852      3075.8007      172786.19      0.84589502     333.08779    
408000 299.39860012827 547.41937167476 3075.8218125724001766 172786.188053555 0.8458950158969319455 29.593756371208900902 197.29170914139200477 336.84572329957097736
    408000   0.5            299.3986       547.41937      3075.8218      172786.19      0.84589502     336.84572    
410000 318.9838 278.5579
412000 301.87940096858 502.922415602838 3075.6598399105801036 172786.188053555 0.8458950158969319455 29.593756371208900902 197.29170914139200477 339.19478319593997639
    412000   0.5            301.8794       502.92242      3075.6598      172786.19      0.84589502     339.19478    
416000 299.772737754994 305.74575608034 3075.7542645677599467 172786.188053555 0.8458950158969319455 29.593756371208900902 197.29170914139200477 343.17893992513097601
    416000   0.5            299.77274      305.74576      3075.7543      172786.19      0.84589502     343.17894    
420000 308.7769 275.2812
420000 299.798155660442 398.757715879797 3075.6590203219898285 172786.188053555 0.8458950158969319455 29.593756371208900902 197.29170914139200477 345.92131515038397538
    420000   0.5            299.79816      398.75772      3075.659       172786.19      0.84589502     345.92132    
424000 296.235827281152 137.432459895617 3075.9763945271702141 172786.188053555 0.8458950158969319455 29.593756371208900902 197.29170914139200477 349.25556124760299781
    424000   0.5            296.23583      137.43246      3075.9764      172786.19      0.84589502     349.25556    
428000 298.789329318441 794.981264366929 3075.9039082351800971 172786.188053555 0.8458950158969319455 29.593756371208900902 197.29170914139200477 353.00076887635998446
    428000   0.5            298.78933      794.98126      3075.9039      172786.19      0.84589502     353.00077    
430000 312.4816 284.8183
432000 296.201849143556 -158.466073313191 3075.829080934220201 172786.188053555 0.8458950158969319455 29.593756371208900902 197.29170914139200477 355.9573196222839897
    432000   0.5            296.20185     -158.46607      3075.8291      172786.19      0.84589502     355.95732    
436000 299.834447616711 99.719567364749 3075.6756566612198185 172786.188053555 0.8458950158969319455 29.593756371208900902 197.29170914139200477 358.71589148337699271
    436000   0.5            299.83445      99.719567      3075.6757      172786.19      0.84589502     358.71589    
440000 327.4222 284.6731
440000 299.882343760559 752.372081424379 3075.5608664470801159 172786.188053555 0.8458950158969319455 29.593756371208900902 197.29170914139200477 361.91906339530697778
    440000   0.5            299.88234      752.37208      3075.5609      172786.19      0.84589502     361.91906    
444000 298.881393275188 195.035428500801 3075.6308675901800598 172786.188053555 0.8458950158969319455 29.593756371208900902 197.29170914139200477 365.24940684693797266
    444000   0.5            298.88139      195.03543      3075.6309      172786.19      0.84589502     365.24941    
448000 299.177549321469 309.237293471363 3075.7017243633599719 172786.188053555 0.8458950158969319455 29.593756371208900902 197.29170914139200477 369.21896778658697258
    448000   0.5            299.17755      309.23729      3075.7017      172786.19      0.84589502     369.21897    
450000 318.2536 280.2463
452000 298.272241266394 -126.329722534605 3075.8156928600601532 172786.188053555 0.8458950158969319455 29.593756371208900902 197.29170914139200477 372.99012414155799888
    452000   0.5            298.27224     -126.32972      3075.8157      172786.19      0.84589502     372.99012    
456000 300.082735321636 589.110685466115 3075.8418950005197985 172786.188053555 0.8458950158969319455 29.593756371208900902 197.29170914139200477 377.00184384938802395
    456000   0.5            300.08274      589.11069      3075.8419      172786.19      0.84589502     377.00184    
460000 329.9739 286.2425
460000 300.19397615507 818.607467296171 3075.5630107759998282 172786.188053555 0.8458950158969319455 29.593756371208900902 197.29170914139200477 381.28297061503201348
    460000   0.5            300.19398      818.60747      3075.563       172786.19      0.84589502     381.28297    
464000 299.197200191108 -165.372168172747 3075.7703973007101013 172786.188053555 0.8458950158969319455 29.593756371208900902 197.29170914139200477 385.37118164353097427
    464000   0.5            299.1972      -165.37217      3075.7704      172786.19      0.84589502     385.37118    
468000 300.420038701729 508.399958015041 3075.6228421720397819 172786.188053555 0.8458950158969319455 29.593756371208900902 197.29170914139200477 388.05884959750102325
    468000   0.5            300.42004      508.39996      3075.6228      172786.19      0.84589502     388.05885    
470000 328.1845 275.6632
472000 301.580371756281 -280.203431368195 3075.5006446442198467 172786.188053555 0.8458950158969319455 29.593756371208900902 197.29170914139200477 391.20531895643802045
    472000   0.5            301.58037     -280.20343      3075.5006      172786.19      0.84589502     391.20532    
476000 300.662789279048 546.579123991987 3075.4889752858698557 172786.188053555 0.8458950158969329447 29.593756371208900902 197.29170914139200477 394.04577933622999808
    476000   0.5            300.66279      546.57912      3075.489       172786.19      0.84589502     394.04578    
480000 338.1943 269.3930
480000 295.61322430242 176.563499469878 3075.7302429896099056 172786.188053555 0.8458950158969319455 29.593756371208900902 197.29170914139200477 397.5318268037630105
    480000   0.5            295.61322      176.5635       3075.7302      172786.19      0.84589502     397.53183    
484000 297.881289488578 513.487110618849 3075.8956317675902028 172786.188053555 0.8458950158969319455 29.593756371208900902 197.29170914139200477 400.42851902627302252
    484000   0.5            297.88129      513.48711      3075.8956      172786.19      0.84589502     400.42852    
488000 302.954469115443 221.548812934093 3075.7394658414500554 172786.188053555 0.8458950158969319455 29.593756371208900902 197.29170914139200477 405.8707678591690069
    488000   0.5            302.95447      221.54881      3075.7395      172786.19      0.84589502     405.87077    
490000 328.3011 271.3944
492000 296.588843230178 362.621094341651 3075.6825871922401348 172786.188053555 0.8458950158969319455 29.593756371208900902 197.29170914139200477 409.6286252985329952
    492000   0.5            296.58884      362.62109      3075.6826      172786.19      0.84589502     409.62863    
496000 301.888075288429 491.823034442818 3075.6697955975701007 172786.188053555 0.8458950158969319455 29.593756371208900902 197.29170914139200477 413.49429148026297298
    496000   0.5            301.88808      491.82303      3075.6698      172786.19      0.84589502     413.49429    
500000 335.5502 262.2245
500000 298.55468797457 240.710407198909 3075.8290732566501902 172786.188053555 0.8458950158969319455 29.593756371208900902 197.29170914139200477 416.70510120652301111
    500000   0.5            298.55469      240.71041      3075.8291      172786.19      0.84589502     416.7051     
504000 299.240873645199 206.21916957874 3075.7631621454002016 172786.188053555 0.8458950158969319455 29.593756371208900902 197.29170914139200477 419.34222123954100425
    504000   0.5            299.24087      206.21917      3075.7632      172786.19      0.84589502     419.34222    
508000 299.257562753922 52.6004443514203 3075.8830031301599774 172786.188053555 0.8458950158969319455 29.593756371208900902 197.29170914139200477 422.24469511337997574
    508000   0.5            299.25756      52.600444      3075.883       172786.19      0.84589502     422.2447     
510000 340.1706 258.3061
512000 297.970844934472 -301.827799052673 3075.7978555625800254 172786.188053555 0.8458950158969319455 29.593756371208900902 197.29170914139200477 426.18242759760602212
    512000   0.5            297.97084     -301.8278       3075.7979      172786.19      0.84589502     426.18243    
516000 297.711487292395 570.118668672435 3075.7033927848201529 172786.188053555 0.8458950158969319455 29.593756371208900902 197.29170914139200477 429.04429137133797667
    516000   0.5            297.71149      570.11867      3075.7034      172786.19      0.84589502     429.04429    
520000 335.8844 271.0164
520000 298.756469977263 28.2063264918646 3075.8829662213402116 172786.188053555 0.8458950158969319455 29.593756371208900902 197.29170914139200477 432.89786571990498487
    520000   0.5            298.75647      28.206326      3075.883       172786.19      0.84589502     432.89787    
524000 300.015547349387 293.501492126461 3075.957814978659826 172786.188053555 0.8458950158969319455 29.593756371208900902 197.29170914139200477 437.00011628503301608
    524000   0.5            300.01555      293.50149      3075.9578      172786.19      0.84589502     437.00012    
528000 301.759820737815 365.065817184231 3075.6153942649398232 172786.188053555 0.8458950158969319455 29.593756371208900902 197.29170914139200477 440.750798495058973
    528000   0.5            301.75982      365.06582      3075.6154      172786.19      0.84589502     440.7508     
530000 326.1765 269.7543
532000 300.590422373899 -320.084956825131 3075.5600749254799666 172786.188053555 0.8458950158969319455 29.593756371208900902 197.29170914139200477 443.27797042999401356
    532000   0.5            300.59042     -320.08496      3075.5601      172786.19      0.84589502     443.27797    
536000 299.670359306184 89.3710402786387 3075.5283589837099498 172786.188053555 0.8458950158969319455 29.593756371208900902 197.29170914139200477 448.56369962151802611
    536000   0.5            299.67036      89.37104       3075.5284      172786.19      0.84589502     448.5637     
540000 321.9615 268.8773
540000 298.65478398053 239.479536312956 3075.5713021828400997 172786.188053555 0.8458950158969329447 29.593756371208900902 197.29170914139200477 451.75193282538100448
    540000   0.5            298.65478      239.47954      3075.5713      172786.19      0.84589502     451.75193    
544000 297.634636990004 168.176526307253 3075.7451247162298387 172786.188053555 0.8458950158969319455 29.593756371208900902 197.29170914139200477 454.58574916762199791
    544000   0.5            297.63464      168.17653      3075.7451      172786.19      0.84589502     454.58575    
548000 299.706771684874 485.574666951566 3075.5873640254699239 172786.188053555 0.8458950158969329447 29.593756371208900902 197.29170914139200477 458.29739590835998797
    548000   0.5            299.70677      485.57467      3075.5874      172786.19      0.84589502     458.2974     
550000 338.5428 247.5490
552000 299.162167822025 433.412042538338 3075.6180363004500578 172786.188053555 0.8458950158969319455 29.593756371208900902 197.29170914139200477 461.92673016009700859
    552000   0.5            299.16217      433.41204      3075.618       172786.19      0.84589502     461.92673    
556000 298.948041530318 -394.450927796615 3075.5161389001400494 172786.188053555 0.8458950158969319455 29.593756371208900902 197.29170914139200477 465.35702071641202338
    556000   0.5            298.94804     -394.45093      3075.5161      172786.19      0.84589502     465.35702    
560000 349.6019 258.1561
560000 298.562960876285 330.21097217165 3075.701018841649784 172786.188053555 0.8458950158969319455 29.593756371208900902 197.29170914139200477 468.59589687957799242
    560000   0.5            298.56296      330.21097      3075.701       172786.19      0.84589502     468.5959     
564000 297.1708360799 -283.50716653997 3075.737435257350171 172786.188053555 0.8458950158969319455 29.593756371208900902 197.29170914139200477 471.44492943904100457
    564000   0.5            297.17084     -283.50717      3075.7374      172786.19      0.84589502     471.44493    
568000 297.427916404391 -4.57240607296901 3075.612941282599877 172786.188053555 0.8458950158969319455 29.593756371208900902 197.29170914139200477 474.24540427608002346
    568000   0.5            297.42792     -4.5724061      3075.6129      172786.19      0.84589502     474.2454     
570000 322.2585 282.7725
572000 300.416126958723 337.393459975442 3075.4495696103099363 172786.188053555 0.8458950158969319455 29.593756371208900902 197.29170914139200477 477.26771947131999241
    572000   0.5            300.41613      337.39346      3075.4496      172786.19      0.84589502     477.26772    
576000 299.925686435437 70.4308323079539 3075.3232418004299689 172786.188053555 0.8458950158969319455 29.593756371208900902 197.29170914139200477 481.28269986607102737
    576000   0.5            299.92569      70.430832      3075.3232      172786.19      0.84589502     481.2827     
580000 316.5454 267.9505
580000 297.398744281912 323.356126455955 3075.4382099055401341 172786.188053555 0.8458950158969319455 29.593756371208900902 197.29170914139200477 483.88197661731902599
    580000   0.5            297.39874      323.35613      3075.4382      172786.19      0.84589502     483.88198    
584000 297.774347601752 266.033269053237 3075.5458044302699818 172786.188053555 0.8458950158969319455 29.593756371208900902 197.29170914139200477 486.56101300350900374
    584000   0.5            297.77435      266.03327      3075.5458      172786.19      0.84589502     486.56101    
588000 300.093820091559 63.4508676546753 3075.758533091479876 172786.188053555 0.8458950158969329447 29.593756371208900902 197.29170914139200477 489.64031114533997879
    588000   0.5            300.09382      63.450868      3075.7585      172786.19      0.84589502     489.64031    
590000 332.3261 264.5388
592000 298.027557480564 -96.7651567046642 3075.7959479504897899 172786.188053555 0.8458950158969319455 29.593756371208900902 197.29170914139200477 492.25272409017202335
    592000   0.5            298.02756     -96.765157      3075.7959      172786.19      0.84589502     492.25272    
596000 297.9073562612 288.526581950076 3075.6277807198798655 172786.188053555 0.8458950158969319455 29.593756371208900902 197.29170914139200477 494.22486726324098072
    596000   0.5            297.90736      288.52658      3075.6278      172786.19      0.84589502     494.22487    
600000 339.1000 268.0916
600000 301.222939978893 332.790598664504 3075.5858068584698231 172786.188053555 0.8458950158969319455 29.593756371208900902 197.29170914139200477 498.35984495823902307
    600000   0.5            301.22294      332.7906       3075.5858      172786.19      0.84589502     498.35984    
604000 295.371858231962 405.425093325822 3075.6712494360399432 172786.188053555 0.8458950158969319455 29.593756371208900902 197.29170914139200477 501.06423585557098477
    604000   0.5            295.37186      405.42509      3075.6712      172786.19      0.84589502     501.06424    
608000 295.943420297567 14.6218445950029 3075.7935676535198581 172786.188053555 0.8458950158969319455 29.593756371208900902 197.29170914139200477 505.83689801394598362
    608000   0.5            295.94342      14.621845      3075.7936      172786.19      0.84589502     505.8369     
610000 329.4749 277.8595
612000 299.810912579791 -170.474674662174 3075.3007173995201811 172786.188053555 0.8458950158969329447 29.593756371208900902 197.29170914139200477 508.32383714330501334
    612000   0.5            299.81091     -170.47467      3075.3007      172786.19      0.84589502     508.32384    
616000 297.822440564845 -310.39729090139 3075.1431250673499562 172786.188053555 0.8458950158969319455 29.593756371208900902 197.29170914139200477 510.8967618571189746
    616000   0.5            297.82244     -310.39729      3075.1431      172786.19      0.84589502     510.89676    
620000 318.8653 272.1726
620000 299.328937410061 266.49260612332 3075.3138313612598722 172786.188053555 0.8458950158969319455 29.593756371208900902 197.29170914139200477 513.16180802313294862
    620000   0.5            299.32894      266.49261      3075.3138      172786.19      0.84589502     513.16181    
624000 296.575177176053 -65.2364335913383 3075.5512983691701265 172786.188053555 0.8458950158969319455 29.593756371208900902 197.29170914139200477 516.71219626185700236
    624000   0.5            296.57518     -65.236434      3075.5513      172786.19      0.84589502     516.7122     
628000 300.426228033358 462.54652118871 3075.0312106803198731 172786.188053555 0.8458950158969319455 29.593756371208900902 197.29170914139200477 518.77987015428698214
    628000   0.5            300.42623      462.54652      3075.0312      172786.19      0.84589502     518.77987    
630000 324.3192 266.6328
632000 298.756986924868 525.179657177849 3075.2002010359501583 172786.188053555 0.8458950158969319455 29.593756371208900902 197.29170914139200477 523.22308166609298041
    632000   0.5            298.75699      525.17966      3075.2002      172786.19      0.84589502     523.22308    
636000 301.585164550441 11.0066707740648 3074.8990732629699778 172786.188053555 0.8458950158969319455 29.593756371208900902 197.29170914139200477 525.7860109352990321
    636000   0.5            301.58516      11.006671      3074.8991      172786.19      0.84589502     525.78601    
640000 323.2180 278.0405
640000 300.490957318354 -152.76291665514 3075.008594967209774 172786.188053555 0.8458950158969319455 29.593756371208900902 197.29170914139200477 529.17717806220503007
    640000   0.5            300.49096     -152.76292      3075.0086      172786.19      0.84589502     529.17718    
644000 298.16450729742 443.697354732551 3075.6093451967899455 172786.188053555 0.8458950158969319455 29.593756371208900902 197.29170914139200477 531.90564328272500916
    644000   0.5            298.16451      443.69735      3075.6093      172786.19      0.84589502     531.90564    
648000 300.197635754827 283.85894646109 3075.5990095977699639 172786.188053555 0.8458950158969319455 29.593756371208900902 197.29170914139200477 536.53415952461000415
    648000   0.5            300.19764      283.85895      3075.599       172786.19      0.84589502     536.53416    
650000 328.4307 276.2012
652000 299.418841448956 -4.12324316111292 3075.4874153689002014 172786.188053555 0.8458950158969319455 29.593756371208900902 197.29170914139200477 540.00941382174096361
    652000   0.5            299.41884     -4.1232432      3075.4874      172786.19      0.84589502     540.00941    
656000 300.454457292415 483.237622003756 3075.4691260577301364 172786.188053555 0.8458950158969319455 29.593756371208900902 197.29170914139200477 543.45543626397704884
    656000   0.5            300.45446      483.23762      3075.4691      172786.19      0.84589502     543.45544    
660000 342.3027 259.9940
660000 300.996590993911 869.437875426586 3075.5441800415401303 172786.188053555 0.8458950158969329447 29.593756371208900902 197.29170914139200477 547.19828363777401137
    660000   0.5            300.99659      869.43788      3075.5442      172786.19      0.84589502     547.19828    
664000 300.648344278897 788.784045839731 3075.3605790414899275 172786.188053555 0.8458950158969319455 29.593756371208900902 197.29170914139200477 550.69413618439898528
    664000   0.5            300.64834      788.78405      3075.3606      172786.19      0.84589502     550.69414    
668000 299.336334874776 -392.082247556276 3075.6335903902299833 172786.188053555 0.8458950158969319455 29.593756371208900902 197.29170914139200477 554.75948807851295896
    668000   0.5            299.33633     -392.08225      3075.6336      172786.19      0.84589502     554.75949    
670000 329.4939 271.0816
672000 300.700412646091 346.931939719403 3075.6994841474402165 172786.188053555 0.8458950158969319455 29.593756371208900902 197.29170914139200477 557.67881086047202643
    672000   0.5            300.70041      346.93194      3075.6995      172786.19      0.84589502     557.67881    
676000 297.696730072542 17.4380861522144 3075.9178401924100399 172786.188053555 0.8458950158969319455 29.593756371208900902 197.29170914139200477 561.27549508269794387
    676000   0.5            297.69673      17.438086      3075.9178      172786.19      0.84589502     561.2755     
680000 309.5364 281.8269
680000 298.133603005113 378.722696686973 3075.8444081200300388 172786.188053555 0.8458950158969329447 29.593756371208900902 197.29170914139200477 565.93832137936294657
    680000   0.5            298.1336       378.7227       3075.8444      172786.19      0.84589502     565.93832    
684000 298.536442400346 77.1813024531376 3075.9419985345598434 172786.188053555 0.8458950158969319455 29.593756371208900902 197.29170914139200477 568.45017056383301224
    684000   0.5            298.53644      77.181302      3075.942       172786.19      0.84589502     568.45017    
688000 300.092899431974 142.865561843197 3075.9275457303301664 172786.188053555 0.8458950158969319455 29.593756371208900902 197.29170914139200477 572.62272722026898464
    688000   0.5            300.0929       142.86556      3075.9275      172786.19      0.84589502     572.62273    
690000 313.9512 269.0308
692000 299.641056047717 187.986241291058 3075.6558723846401335 172786.188053555 0.8458950158969319455 29.593756371208900902 197.29170914139200477 576.89393791419297486
    692000   0.5            299.64106      187.98624      3075.6559      172786.19      0.84589502     576.89394    
696000 299.842397735653 -1.91042455613073 3075.7936645684999348 172786.188053555 0.8458950158969319455 29.593756371208900902 197.29170914139200477 580.14208623063200321
    696000   0.5            299.8424      -1.9104246      3075.7937      172786.19      0.84589502     580.14209    
700000 318.4400 264.5543
700000 299.253672575055 -409.206297832876 3076.022126891859898 172786.188053555 0.8458950158969319455 29.593756371208900902 197.29170914139200477 583.4202902726880211
    700000   0.5            299.25367     -409.2063       3076.0221      172786.19      0.84589502     583.42029    
704000 295.965230759914 141.795050394019 3076.0212524272001247 172786.188053555 0.8458950158969319455 29.593756371208900902 197.29170914139200477 587.20612773716800348
    704000   0.5            295.96523      141.79505      3076.0213      172786.19      0.84589502     587.20613    
708000 296.455844654687 -511.477234232258 3076.090814491709807 172786.188053555 0.8458950158969319455 29.593756371208900902 197.29170914139200477 589.93174711784695319
    708000   0.5            296.45584     -511.47723      3076.0908      172786.19      0.84589502     589.93175    
710000 323.8229 262.9848
712000 297.932998844811 115.366516412185 3076.0581899695798711 172786.188053555 0.8458950158969319455 29.593756371208900902 197.29170914139200477 593.27424484419498185
    712000   0.5            297.933        115.36652      3076.0582      172786.19      0.84589502     593.27424    
716000 298.310265828508 35.0266419822506 3075.7557951737499025 172786.188053555 0.8458950158969319455 29.593756371208900902 197.29170914139200477 596.17327986932002659
    716000   0.5            298.31027      35.026642      3075.7558      172786.19      0.84589502     596.17328    
720000 309.0349 276.4180
720000 298.898129576151 -126.545507097437 3075.5922672428700935 172786.188053555 0.8458950158969319455 29.593756371208900902 197.29170914139200477 599.75929225422703439
    720000   0.5            298.89813     -126.54551      3075.5923      172786.19      0.84589502     599.75929    
724000 300.685625390437 67.1110268349177 3075.677537391919941 172786.188053555 0.8458950158969319455 29.593756371208900902 197.29170914139200477 602.46894650567401186
    724000   0.5            300.68563      67.111027      3075.6775      172786.19      0.84589502     602.46895    
728000 296.514736551899 -222.28258687528 3075.811321836460138 172786.188053555 0.8458950158969319455 29.593756371208900902 197.29170914139200477 605.53710170596502849
    728000   0.5            296.51474     -222.28259      3075.8113      172786.19      0.84589502     605.5371     
730000 333.3182 264.9642
732000 295.186238658392 -67.7529032527159 3075.7801297891701324 172786.188053555 0.8458950158969319455 29.593756371208900902 197.29170914139200477 608.29613472116795947
    732000   0.5            295.18624     -67.752903      3075.7801      172786.19      0.84589502     608.29613    
736000 295.939698698163 30.630844014312 3075.9045458384598533 172786.188053555 0.8458950158969319455 29.593756371208900902 197.29170914139200477 610.96183962079396679
    736000   0.5            295.9397       30.630844      3075.9045      172786.19      0.84589502     610.96184    
740000 341.8611 268.0580
740000 294.062908310345 614.357552222175 3076.1508025484699829 172786.188053555 0.8458950158969319455 29.593756371208900902 197.29170914139200477 614.32745674994305318
    740000   0.5            294.06291      614.35755      3076.1508      172786.19      0.84589502     614.32746    
744000 298.293748491602 -51.3881618344653 3076.0187254983497951 172786.188053555 0.8458950158969319455 29.593756371208900902 197.29170914139200477 619.5767493376749826
    744000   0.5            298.29375     -51.388162      3076.0187      172786.19      0.84589502     619.57675    
748000 296.744944692922 165.824111096401 3076.0965902598500179 172786.188053555 0.8458950158969319455 29.593756371208900902 197.29170914139200477 623.32062676744794771
    748000   0.5            296.74494      165.82411      3076.0966      172786.19      0.84589502     623.32063    
750000 348.3881 269.4572
752000 300.018695372566 271.194464210803 3075.6909848763998525 172786.188053555 0.8458950158969319455 29.593756371208900902 197.29170914139200477 626.48523216745297759
    752000   0.5            300.0187       271.19446      3075.691       172786.19      0.84589502     626.48523    
756000 299.725206943074 -163.408120903065 3075.6161762796800758 172786.188053555 0.8458950158969319455 29.593756371208900902 197.29170914139200477 630.07182308516894409
    756000   0.5            299.72521     -163.40812      3075.6162      172786.19      0.84589502     630.07182    
760000 316.8759 264.6112
760000 300.104744713484 0.00555786808691219 3075.6538566806698327 172786.188053555 0.8458950158969319455 29.593756371208900902 197.29170914139200477 633.30376136474103532
    760000   0.5            300.10474      0.0055578681   3075.6539      172786.19      0.84589502     633.30376    
764000 301.57928928377 402.401284789833 3075.5853168863900464 172786.188053555 0.8458950158969319455 29.593756371208900902 197.29170914139200477 636.38798417798000173
    764000   0.5            301.57929      402.40128      3075.5853      172786.19      0.84589502     636.38798    
768000 297.919547484557 615.058501052375 3075.9392677697401268 172786.188053555 0.8458950158969329447 29.593756371208900902 197.29170914139200477 639.10565855041295436
    768000   0.5            297.91955      615.0585       3075.9393      172786.19      0.84589502     639.10566    
770000 335.9330 263.6770
772000 298.618276173264 504.428344302405 3075.7470361732098354 172786.188053555 0.8458950158969319455 29.593756371208900902 197.29170914139200477 641.83784314885997446
    772000   0.5            298.61828      504.42834      3075.747       172786.19      0.84589502     641.83784    
776000 297.419819600816 -82.8914549282628 3075.9536062729998775 172786.188053555 0.8458950158969319455 29.593756371208900902 197.29170914139200477 644.4493719857839551
    776000   0.5            297.41982     -82.891455      3075.9536      172786.19      0.84589502     644.44937    
780000 345.1016 271.6977
780000 301.990495082526 -57.2713048914298 3075.7325008434900155 172786.188053555 0.8458950158969319455 29.593756371208900902 197.29170914139200477 647.55218924289101778
    780000   0.5            301.9905      -57.271305      3075.7325      172786.19      0.84589502     647.55219    
784000 298.719763942569 466.968564710165 3075.8108312590698006 172786.188053555 0.8458950158969319455 29.593756371208900902 197.29170914139200477 651.48495692512301503
    784000   0.5            298.71976      466.96856      3075.8108      172786.19      0.84589502     651.48496    
788000 298.447209973325 185.418287403999 3075.9221173624000585 172786.188053555 0.8458950158969319455 29.593756371208900902 197.29170914139200477 654.04305396080894752
    788000   0.5            298.44721      185.41829      3075.9221      172786.19      0.84589502     654.04305    
790000 336.2608 266.7136
792000 297.105478853851 -102.786776456813 3075.9314486907601349 172786.188053555 0.8458950158969319455 29.593756371208900902 197.29170914139200477 657.31521958220196211
    792000   0.5            297.10548     -102.78678      3075.9314      172786.19      0.84589502     657.31522    
796000 299.156655400673 51.2754971302655 3075.8883801083898106 172786.188053555 0.8458950158969319455 29.593756371208900902 197.29170914139200477 660.17361404421194493
    796000   0.5            299.15666      51.275497      3075.8884      172786.19      0.84589502     660.17361    
800000 344.7662 267.9750
800000 295.20204628203 492.998707981567 3076.0650339021999571 172786.188053555 0.8458950158969319455 29.593756371208900902 197.29170914139200477 665.14839955629201995
    800000   0.5            295.20205      492.99871      3076.065       172786.19      0.84589502     665.1484     
804000 300.164274739924 -388.198114166915 3076.0347105589698913 172786.188053555 0.8458950158969319455 29.593756371208900902 197.29170914139200477 668.17266571554205257
    804000   0.5            300.16427     -388.19811      3076.0347      172786.19      0.84589502     668.17267    
808000 299.87903953022 296.240106038639 3075.6105060736999803 172786.188053555 0.8458950158969319455 29.593756371208900902 197.29170914139200477 671.05764288806494733
    808000   0.5            299.87904      296.24011      3075.6105      172786.19      0.84589502     671.05764    
810000 319.7224 264.2058
812000 298.997873647721 237.85083818357 3075.7519337102098689 172786.188053555 0.8458950158969319455 29.593756371208900902 197.29170914139200477 674.32776257342197823
    812000   0.5            298.99787      237.85084      3075.7519      172786.19      0.84589502     674.32776    
816000 300.638818951556 338.617470452522 3075.4161041616398506 172786.188053555 0.8458950158969319455 29.593756371208900902 197.29170914139200477 677.34268051881599604
    816000   0.5            300.63882      338.61747      3075.4161      172786.19      0.84589502     677.34268    
820000 331.2091 261.7847
820000 297.455805310637 915.92539216896 3075.6788357683299182 172786.188053555 0.8458950158969319455 29.593756371208900902 197.29170914139200477 680.46391433848702945
    820000   0.5            297.45581      915.92539      3075.6788      172786.19      0.84589502     680.46391    
824000 298.847938178945 -77.6500328964028 3075.845220688990139 172786.188053555 0.8458950158969319455 29.593756371208900902 197.29170914139200477 682.7502329244870225
    824000   0.5            298.84794     -77.650033      3075.8452      172786.19      0.84589502     682.75023    
828000 302.404786768118 192.697461347662 3075.6729639600398514 172786.188053555 0.8458950158969319455 29.593756371208900902 197.29170914139200477 685.56233040039001025
    828000   0.5            302.40479      192.69746      3075.673       172786.19      0.84589502     685.56233    
830000 335.8731 259.8598
832000 297.924380410331 341.356027866407 3075.8827905016000841 172786.188053555 0.8458950158969319455 29.593756371208900902 197.29170914139200477 689.56512018165699374
    832000   0.5            297.92438      341.35603      3075.8828      172786.19      0.84589502     689.56512    
836000 296.923376143726 -393.41626044583 3075.825942845840018 172786.188053555 0.8458950158969319455 29.593756371208900902 197.29170914139200477 691.88398679661599999
    836000   0.5            296.92338     -393.41626      3075.8259      172786.19      0.84589502     691.88399    
840000 335.7166 252.5996
840000 302.096880571415 230.561934868961 3075.6801581720301328 172786.188053555 0.8458950158969319455 29.593756371208900902 197.29170914139200477 696.07732336151798336
    840000   0.5            302.09688      230.56193      3075.6802      172786.19      0.84589502     696.07732    
844000 298.711604491977 374.18348297233 3075.6420995899798072 172786.188053555 0.8458950158969319455 29.593756371208900902 197.29170914139200477 700.25202878211996449
    844000   0.5            298.7116       374.18348      3075.6421      172786.19      0.84589502     700.25203    
848000 300.713192098696 -94.8228389230737 3075.3306766412401885 172786.188053555 0.8458950158969319455 29.593756371208900902 197.29170914139200477 703.12853355928098154
    848000   0.5            300.71319     -94.822839      3075.3307      172786.19      0.84589502     703.12853    
850000 339.4731 269.6565
852000 300.65269373283 18.5860819560823 3075.2541980259197771 172786.188053555 0.8458950158969319455 29.593756371208900902 197.29170914139200477 706.9158264054309484
    852000   0.5            300.65269      18.586082      3075.2542      172786.19      0.84589502     706.91583    
856000 300.005010177228 74.8851358672339 3075.3057724064201466 172786.188053555 0.8458950158969319455 29.593756371208900902 197.29170914139200477 710.03430461411596752
    856000   0.5            300.00501      74.885136      3075.3058      172786.19      0.84589502     710.0343     
860000 333.1986 270.3456
860000 298.676127779757 425.461799749106 3075.5064709719999883 172786.188053555 0.8458950158969319455 29.593756371208900902 197.29170914139200477 712.63399428414697923
    860000   0.5            298.67613      425.4618       3075.5065      172786.19      0.84589502     712.63399    
864000 299.818913831714 394.701195508461 3075.5355955090199132 172786.188053555 0.8458950158969319455 29.593756371208900902 197.29170914139200477 716.21800142276197221
    864000   0.5            299.81891      394.7012       3075.5356      172786.19      0.84589502     716.218      
868000 296.556545405861 -33.0420665460532 3075.9243613284797902 172786.188053555 0.8458950158969319455 29.593756371208900902 197.29170914139200477 719.43079319939295146
    868000   0.5            296.55655     -33.042067      3075.9244      172786.19      0.84589502     719.43079    
870000 325.0826 282.3054
872000 296.586807667395 419.161061686737 3075.8553190064899354 172786.188053555 0.8458950158969319455 29.593756371208900902 197.29170914139200477 723.86713615710004888
    872000   0.5            296.58681      419.16106      3075.8553      172786.19      0.84589502     723.86714    
876000 298.070918667028 119.19203354476 3075.5764406529301596 172786.188053555 0.8458950158969319455 29.593756371208900902 197.29170914139200477 727.93988126215299417
    876000   0.5            298.07092      119.19203      3075.5764      172786.19      0.84589502     727.93988    
880000 322.3273 280.2836
880000 299.370690353876 224.05535056881 3075.4326436280398411 172786.188053555 0.8458950158969319455 29.593756371208900902 197.29170914139200477 731.31370107716395523
    880000   0.5            299.37069      224.05535      3075.4326      172786.19      0.84589502     731.3137     
884000 301.334115722176 36.9610604180348 3075.389042006139789 172786.188053555 0.8458950158969319455 29.593756371208900902 197.29170914139200477 735.11832408286602458
    884000   0.5            301.33412      36.96106       3075.389       172786.19      0.84589502     735.11832    
888000 300.03612899126 432.598084072147 3075.4876976463101528 172786.188053555 0.8458950158969319455 29.593756371208900902 197.29170914139200477 738.31307791159395038
    888000   0.5            300.03613      432.59808      3075.4877      172786.19      0.84589502     738.31308    
890000 325.3370 280.2419
892000 299.842847872199 -199.830516276623 3075.4356862261101924 172786.188053555 0.8458950158969319455 29.593756371208900902 197.29170914139200477 741.76910217785598434
    892000   0.5            299.84285     -199.83052      3075.4357      172786.19      0.84589502     741.7691     
896000 298.70894223515 -225.305397768241 3075.6925467898099669 172786.188053555 0.8458950158969319455 29.593756371208900902 197.29170914139200477 745.30156626748896542
    896000   0.5            298.70894     -225.3054       3075.6925      172786.19      0.84589502     745.30157    
900000 349.8200 271.5067
900000 299.534275060705 352.514714519944 3075.4949842229098067 172786.188053555 0.8458950158969319455 29.593756371208900902 197.29170914139200477 747.6937819285999467
    900000   0.5            299.53428      352.51471      3075.495       172786.19      0.84589502     747.69378    
904000 297.354986293289 -400.613292392951 3075.5989205533301174 172786.188053555 0.8458950158969319455 29.593756371208900902 197.29170914139200477 750.73999007503505254
    904000   0.5            297.35499     -400.61329      3075.5989      172786.19      0.84589502     750.73999    
908000 302.414967046249 98.4795517948842 3075.5630227260098764 172786.188053555 0.8458950158969319455 29.593756371208900902 197.29170914139200477 753.96908606384499762
    908000   0.5            302.41497      98.479552      3075.563       172786.19      0.84589502     753.96909    
910000 332.0539 273.0507
912000 300.751442586566 -108.257019590004 3075.494416380290204 172786.188053555 0.8458950158969319455 29.593756371208900902 197.29170914139200477 757.9136098087319624
    912000   0.5            300.75144     -108.25702      3075.4944      172786.19      0.84589502     757.91361    
916000 299.876917679055 677.761184097928 3075.6952709101001346 172786.188053555 0.8458950158969319455 29.593756371208900902 197.29170914139200477 761.78478579149498273
    916000   0.5            299.87692      677.76118      3075.6953      172786.19      0.84589502     761.78479    
920000 325.1325 271.5469
920000 297.731721154035 -379.201534924719 3075.7863542492400484 172786.188053555 0.8458950158969329447 29.593756371208900902 197.29170914139200477 764.36632685070503612
    920000   0.5            297.73172     -379.20153      3075.7864      172786.19      0.84589502     764.36633    
924000 297.390473228678 101.188932493888 3075.725454623369842 172786.188053555 0.8458950158969319455 29.593756371208900902 197.29170914139200477 767.13685191239301275
    924000   0.5            297.39047      101.18893      3075.7255      172786.19      0.84589502     767.13685    
928000 300.069622848794 -62.0298564767099 3075.6247083778698652 172786.188053555 0.8458950158969319455 29.593756371208900902 197.29170914139200477 770.19467247031604984
    928000   0.5            300.06962     -62.029856      3075.6247      172786.19      0.84589502     770.19467    
930000 344.0095 257.4318
932000 301.327215850515 777.564975897557 3075.7458063479298289 172786.188053555 0.8458950158969319455 29.593756371208900902 197.29170914139200477 775.42183727720600928
    932000   0.5            301.32722      777.56498      3075.7458      172786.19      0.84589502     775.42184    
936000 302.582190507345 -240.943221290371 3075.4851386864102096 172786.188053555 0.8458950158969319455 29.593756371208900902 197.29170914139200477 778.11190148988998772
    936000   0.5            302.58219     -240.94322      3075.4851      172786.19      0.84589502     778.1119     
940000 334.6927 270.6611
940000 300.802969861418 542.678153471343 3075.541542631629909 172786.188053555 0.8458950158969319455 29.593756371208900902 197.29170914139200477 781.65922423188999346
    940000   0.5            300.80297      542.67815      3075.5415      172786.19      0.84589502     781.65922    
944000 301.391958492528 490.544413975254 3075.5192318850199626 172786.188053555 0.8458950158969319455 29.593756371208900902 197.29170914139200477 784.61834530107296359
    944000   0.5            301.39196      490.54441      3075.5192      172786.19      0.84589502     784.61835    
948000 295.059218925397 300.476604055614 3075.8473339759098053 172786.188053555 0.8458950158969319455 29.593756371208900902 197.29170914139200477 788.39851390233104667
    948000   0.5            295.05922      300.4766       3075.8473      172786.19      0.84589502     788.39851    
950000 329.4090 273.7510
952000 298.844598879805 351.604750756387 3075.8929961811900284 172786.188053555 0.8458950158969319455 29.593756371208900902 197.29170914139200477 793.39397575226894332
    952000   0.5            298.8446       351.60475      3075.893       172786.19      0.84589502     793.39398    
956000 293.321134717351 187.767679310213 3075.8486283782999635 172786.188053555 0.8458950158969319455 29.593756371208900902 197.29170914139200477 796.57268606484603879
    956000   0.5            293.32113      187.76768      3075.8486      172786.19      0.84589502     796.57269    
960000 356.7195 272.2817
960000 295.944605794876 66.5267690850212 3076.0061772404801559 172786.188053555 0.8458950158969319455 29.593756371208900902 197.29170914139200477 799.48536859868295323
    960000   0.5            295.94461      66.526769      3076.0062      172786.19      0.84589502     799.48537    
964000 297.391021123693 -464.36512196593 3075.8854076081302082 172786.188053555 0.8458950158969319455 29.593756371208900902 197.29170914139200477 803.34105440267194354
    964000   0.5            297.39102     -464.36512      3075.8854      172786.19      0.84589502     803.34105    
968000 298.01984850483 -595.70489273265 3075.899132477170042 172786.188053555 0.8458950158969319455 29.593756371208900902 197.29170914139200477 807.21296742507399813
    968000   0.5            298.01985     -595.70489      3075.8991      172786.19      0.84589502     807.21297    
970000 351.7943 271.5855
972000 298.657481501691 599.668129595311 3075.8074281871099629 172786.188053555 0.8458950158969319455 29.593756371208900902 197.29170914139200477 809.91172734652002418
    972000   0.5            298.65748      599.66813      3075.8074      172786.19      0.84589502     809.91173    
976000 295.220079567069 728.076133103263 3075.7686141637800574 172786.188053555 0.8458950158969319455 29.593756371208900902 197.29170914139200477 813.88918301354294726
    976000   0.5            295.22008      728.07613      3075.7686      172786.19      0.84589502     813.88918    
980000 358.0154 252.9410
980000 297.978168950213 -17.4319820114421 3075.7205911057899357 172786.188053555 0.8458950158969319455 29.593756371208900902 197.29170914139200477 816.56280879181497312
    980000   0.5            297.97817     -17.431982      3075.7206      172786.19      0.84589502     816.56281    
984000 298.232091009164 -369.882055318287 3075.6013081653900372 172786.188053555 0.8458950158969319455 29.593756371208900902 197.29170914139200477 820.4279117892880322
    984000   0.5            298.23209     -369.88206      3075.6013      172786.19      0.84589502     820.42791    
988000 300.12859376262 481.726765315258 3075.6899982105701383 172786.188053555 0.8458950158969319455 29.593756371208900902 197.29170914139200477 823.75638947000504686
    988000   0.5            300.12859      481.72677      3075.69        172786.19      0.84589502     823.75639    
990000 350.8623 277.8080
992000 301.131514420298 401.885345676043 3075.8525890474397784 172786.188053555 0.8458950158969319455 29.593756371208900902 197.29170914139200477 826.7602083884220292
    992000   0.5            301.13151      401.88535      3075.8526      172786.19      0.84589502     826.76021    
996000 297.041659388765 394.868692129831 3075.9948849391898875 172786.188053555 0.8458950158969319455 29.593756371208900902 197.29170914139200477 830.45468108449404099
    996000   0.5            297.04166      394.86869      3075.9949      172786.19      0.84589502     830.45468    
1000000 339.3030 271.8108
1000000 297.317503475557 356.379308848704 3075.7512837970298278 172786.188053555 0.8458950158969319455 29.593756371208900902 197.29170914139200477 834.03232216302001234
   1000000   0.5            297.3175       356.37931      3075.7513      172786.19      0.84589502     834.03232    
1004000 297.993750022249 -256.162305018344 3075.7234054970099351 172786.188053555 0.8458950158969319455 29.593756371208900902 197.29170914139200477 837.75711161029903451
   1004000   0.5            297.99375     -256.16231      3075.7234      172786.19      0.84589502     837.75711    
1008000 298.32001168725 -331.576873780021 3075.8113556834300653 172786.188053555 0.8458950158969319455 29.593756371208900902 197.29170914139200477 840.75782954075600628
   1008000   0.5            298.32001     -331.57687      3075.8114      172786.19      0.84589502     840.75783    
1010000 327.4042 268.9358
1012000 298.030811257532 105.992705723318 3075.8797653472702223 172786.188053555 0.8458950158969319455 29.593756371208900902 197.29170914139200477 846.34013594453301721
   1012000   0.5            298.03081      105.99271      3075.8798      172786.19      0.84589502     846.34014    
1016000 302.417116829248 416.733235427571 3076.0519591371999013 172786.188053555 0.8458950158969319455 29.593756371208900902 197.29170914139200477 848.96006228542103145
   1016000   0.5            302.41712      416.73324      3076.052       172786.19      0.84589502     848.96006    
1020000 319.9595 271.6340
1020000 299.290095581778 127.842071304501 3075.9771950779199869 172786.188053555 0.8458950158969319455 29.593756371208900902 197.29170914139200477 852.44007114929604541
   1020000   0.5            299.2901       127.84207      3075.9772      172786.19      0.84589502     852.44007    
1024000 300.964891709322 195.663129765809 3075.7192215671198028 172786.188053555 0.8458950158969319455 29.593756371208900902 197.29170914139200477 855.48995862091396702
   1024000   0.5            300.96489      195.66313      3075.7192      172786.19      0.84589502     855.48996    
1028000 300.714267427331 883.401218999713 3075.8400865796998005 172786.188053555 0.8458950158969329447 29.593756371208900902 197.29170914139200477 858.93251009823904951
   1028000   0.5            300.71427      883.40122      3075.8401      172786.19      0.84589502     858.93251    
1030000 330.9818 282.4759
1032000 298.580210847339 -78.5593740251266 3075.9260347790900596 172786.188053555 0.8458950158969319455 29.593756371208900902 197.29170914139200477 864.59960444811304114
   1032000   0.5            298.58021     -78.559374      3075.926       172786.19      0.84589502     864.5996     
1036000 300.04896467052 226.326887819716 3075.7687357512199924 172786.188053555 0.8458950158969319455 29.593756371208900902 197.29170914139200477 868.28732664111703343
   1036000   0.5            300.04896      226.32689      3075.7687      172786.19      0.84589502     868.28733    
1040000 322.8213 264.9561
1040000 297.907853622078 -336.148277485336 3075.8937297283600856 172786.188053555 0.8458950158969319455 29.593756371208900902 197.29170914139200477 871.16329236644401135
   1040000   0.5            297.90785     -336.14828      3075.8937      172786.19      0.84589502     871.16329    
1044000 302.93634545294 -585.044639046044 3075.4281686620001892 172786.188053555 0.8458950158969319455 29.593756371208900902 197.29170914139200477 874.48082159898001464
   1044000   0.5            302.93635     -585.04464      3075.4282      172786.19      0.84589502     874.48082    
1048000 300.579296641407 -118.316313984225 3075.4133374188199923 172786.188053555 0.8458950158969319455 29.593756371208900902 197.29170914139200477 876.84961338470498049
   1048000   0.5            300.5793      -118.31631      3075.4133      172786.19      0.84589502     876.84961    
1050000 336.8427 279.1015
1052000 302.900179898391 562.227663512426 3075.2634934181801327 172786.188053555 0.8458950158969319455 29.593756371208900902 197.29170914139200477 879.84166390520704226
   1052000   0.5            302.90018      562.22766      3075.2635      172786.19      0.84589502     879.84166    
[...]
  19752000   0.5            297.40554      107.69597      3084.3509      172786.19      0.84589502     16153.942    
19756000 300.425046737741 491.104508575899 3084.6015046111901938 172786.188053555 0.8458950158969319455 29.593756371208900902 197.29170914139200477 16157.570560616499279
  19756000   0.5            300.42505      491.10451      3084.6015      172786.19      0.84589502     16157.571    
19760000 339.7642 245.0032
19760000 299.021748977682 -418.118990976974 3084.9475324648701644 172786.188053555 0.8458950158969329447 29.593756371208900902 197.29170914139200477 16161.111055318700892
  19760000   0.5            299.02175     -418.11899      3084.9475      172786.19      0.84589502     16161.111    
19764000 299.22890955547 -20.1522150170973 3084.9426362166500439 172786.188053555 0.8458950158969319455 29.593756371208900902 197.29170914139200477 16166.133918673500375
  19764000   0.5            299.22891     -20.152215      3084.9426      172786.19      0.84589502     16166.134    
19768000 296.938807345895 141.874142774503 3084.9733836001100826 172786.188053555 0.8458950158969329447 29.593756371208900902 197.29170914139200477 16170.083817118000297
  19768000   0.5            296.93881      141.87414      3084.9734      172786.19      0.84589502     16170.084    
19770000 344.5586 252.2139
19772000 300.687046177945 -156.419054091188 3084.8975267114201415 172786.188053555 0.8458950158969329447 29.593756371208900902 197.29170914139200477 16173.958213915300803
  19772000   0.5            300.68705     -156.41905      3084.8975      172786.19      0.84589502     16173.958    
19776000 299.568577881156 -44.3137113965597 3085.0604548381697896 172786.188053555 0.8458950158969329447 29.593756371208900902 197.29170914139200477 16176.721671295299529
  19776000   0.5            299.56858     -44.313711      3085.0605      172786.19      0.84589502     16176.722    
19780000 353.2486 260.4875
19780000 297.059032224604 239.891093007651 3085.0725405467701421 172786.188053555 0.8458950158969319455 29.593756371208900902 197.29170914139200477 16179.791377290799574
  19780000   0.5            297.05903      239.89109      3085.0725      172786.19      0.84589502     16179.791    
19784000 294.537670840638 -56.3721964402952 3085.4286932458398951 172786.188053555 0.8458950158969329447 29.593756371208900902 197.29170914139200477 16183.125480814300317
  19784000   0.5            294.53767     -56.372196      3085.4287      172786.19      0.84589502     16183.125    
19788000 293.423241149738 389.10560224296 3085.2039231176099747 172786.188053555 0.8458950158969319455 29.593756371208900902 197.29170914139200477 16186.148993197699383
  19788000   0.5            293.42324      389.1056       3085.2039      172786.19      0.84589502     16186.149    
19790000 313.1859 259.2048
19792000 295.662475618185 229.362389526909 3085.1227853998598221 172786.188053555 0.8458950158969319455 29.593756371208900902 197.29170914139200477 16189.204569308900318
  19792000   0.5            295.66248      229.36239      3085.1228      172786.19      0.84589502     16189.205    
19796000 298.505587325373 -425.514797188308 3085.2178766473998621 172786.188053555 0.8458950158969319455 29.593756371208900902 197.29170914139200477 16192.064401958699818
  19796000   0.5            298.50559     -425.5148       3085.2179      172786.19      0.84589502     16192.064    
19800000 332.2417 261.2774
19800000 296.887175798304 -464.791934611327 3084.8826272004098428 172786.188053555 0.8458950158969319455 29.593756371208900902 197.29170914139200477 16195.5128023569996
  19800000   0.5            296.88718     -464.79193      3084.8826      172786.19      0.84589502     16195.513    
19804000 297.524923409586 299.625154275033 3084.6893038272301055 172786.188053555 0.8458950158969319455 29.593756371208900902 197.29170914139200477 16198.426888870399125
  19804000   0.5            297.52492      299.62515      3084.6893      172786.19      0.84589502     16198.427    
19808000 298.135782275397 365.390577286858 3084.6935379173801266 172786.188053555 0.8458950158969319455 29.593756371208900902 197.29170914139200477 16201.909689206400799
  19808000   0.5            298.13578      365.39058      3084.6935      172786.19      0.84589502     16201.91     
19810000 337.4589 263.8615
19812000 302.748104918061 373.576015134072 3084.5727148837900131 172786.188053555 0.8458950158969319455 29.593756371208900902 197.29170914139200477 16205.465779238000323
  19812000   0.5            302.7481       373.57602      3084.5727      172786.19      0.84589502     16205.466    
19816000 300.118148703626 395.962422356367 3085.0733166954601074 172786.188053555 0.8458950158969319455 29.593756371208900902 197.29170914139200477 16208.608997285600708
  19816000   0.5            300.11815      395.96242      3085.0733      172786.19      0.84589502     16208.609    
19820000 337.9391 247.8515
19820000 297.814382759717 49.5755310164574 3085.3132299643398255 172786.188053555 0.8458950158969319455 29.593756371208900902 197.29170914139200477 16211.271284161199219
  19820000   0.5            297.81438      49.575531      3085.3132      172786.19      0.84589502     16211.271    
19824000 296.440465163052 -252.645064551278 3085.2090564662198631 172786.188053555 0.8458950158969319455 29.593756371208900902 197.29170914139200477 16213.941978454700802
  19824000   0.5            296.44047     -252.64506      3085.2091      172786.19      0.84589502     16213.942    
19828000 299.50303724992 -177.477517839579 3085.2430739777300914 172786.188053555 0.8458950158969319455 29.593756371208900902 197.29170914139200477 16216.580155557299804
  19828000   0.5            299.50304     -177.47752      3085.2431      172786.19      0.84589502     16216.58     
19830000 343.2711 250.6729
19832000 293.593079255968 -220.040117586205 3085.0596737981099977 172786.188053555 0.8458950158969329447 29.593756371208900902 197.29170914139200477 16219.832513756400658
  19832000   0.5            293.59308     -220.04012      3085.0597      172786.19      0.84589502     16219.833    
19836000 300.710516529812 -496.036342549402 3084.9692358837100983 172786.188053555 0.8458950158969319455 29.593756371208900902 197.29170914139200477 16222.789829540499341
  19836000   0.5            300.71052     -496.03634      3084.9692      172786.19      0.84589502     16222.79     
19840000 333.2105 256.6999
19840000 294.683059440946 -507.328654292178 3084.9260160157700739 172786.188053555 0.8458950158969319455 29.593756371208900902 197.29170914139200477 16225.863964400299665
  19840000   0.5            294.68306     -507.32865      3084.926       172786.19      0.84589502     16225.864    
19844000 296.928210793642 403.761233572603 3084.8723247802699916 172786.188053555 0.8458950158969329447 29.593756371208900902 197.29170914139200477 16228.700595227799568
  19844000   0.5            296.92821      403.76123      3084.8723      172786.19      0.84589502     16228.701    
19848000 295.973760858271 -557.29823244812 3084.6059065702597763 172786.188053555 0.8458950158969329447 29.593756371208900902 197.29170914139200477 16231.435713976399711
  19848000   0.5            295.97376     -557.29823      3084.6059      172786.19      0.84589502     16231.436    
19850000 357.3730 256.6458
19852000 300.987732240763 -602.673553270649 3084.703321758239781 172786.188053555 0.8458950158969319455 29.593756371208900902 197.29170914139200477 16235.268349157999182
  19852000   0.5            300.98773     -602.67355      3084.7033      172786.19      0.84589502     16235.268    
19856000 295.794994217176 142.135748623508 3084.8028719532899231 172786.188053555 0.8458950158969319455 29.593756371208900902 197.29170914139200477 16238.876172437499918
  19856000   0.5            295.79499      142.13575      3084.8029      172786.19      0.84589502     16238.876    
19860000 357.8070 267.6275
19860000 295.586959603219 -63.6754308413802 3084.8563371702598488 172786.188053555 0.8458950158969329447 29.593756371208900902 197.29170914139200477 16242.094899766500021
  19860000   0.5            295.58696     -63.675431      3084.8563      172786.19      0.84589502     16242.095    
19864000 295.954361637023 -105.067645627055 3085.0385197369200796 172786.188053555 0.8458950158969319455 29.593756371208900902 197.29170914139200477 16244.617424676600422
  19864000   0.5            295.95436     -105.06765      3085.0385      172786.19      0.84589502     16244.617    
19868000 297.981575949452 -258.190504500413 3084.9221088137701372 172786.188053555 0.8458950158969329447 29.593756371208900902 197.29170914139200477 16247.227929035299894
  19868000   0.5            297.98158     -258.1905       3084.9221      172786.19      0.84589502     16247.228    
19870000 340.4754 270.8906
19872000 297.717558053411 -418.284408312628 3084.6802472862300419 172786.188053555 0.8458950158969319455 29.593756371208900902 197.29170914139200477 16251.804693045500244
  19872000   0.5            297.71756     -418.28441      3084.6802      172786.19      0.84589502     16251.805    
19876000 296.414270269442 -223.427241133087 3084.8398297175099287 172786.188053555 0.8458950158969319455 29.593756371208900902 197.29170914139200477 16255.893912217199613
  19876000   0.5            296.41427     -223.42724      3084.8398      172786.19      0.84589502     16255.894    
19880000 344.6350 260.8104
19880000 297.278610927288 -664.554060729097 3084.5972422861900668 172786.188053555 0.8458950158969319455 29.593756371208900902 197.29170914139200477 16259.347254608599542
  19880000   0.5            297.27861     -664.55406      3084.5972      172786.19      0.84589502     16259.347    
19884000 301.091417111483 -189.244074833729 3084.6596299352099777 172786.188053555 0.8458950158969319455 29.593756371208900902 197.29170914139200477 16263.597733779099144
  19884000   0.5            301.09142     -189.24407      3084.6596      172786.19      0.84589502     16263.598    
19888000 297.919152200382 -33.6260836289346 3084.8064178643498963 172786.188053555 0.8458950158969319455 29.593756371208900902 197.29170914139200477 16266.988136512200072
  19888000   0.5            297.91915     -33.626084      3084.8064      172786.19      0.84589502     16266.988    
19890000 322.0679 265.7025
19892000 300.077664530534 -422.571338358083 3085.0257804396301253 172786.188053555 0.8458950158969329447 29.593756371208900902 197.29170914139200477 16270.542194717700113
  19892000   0.5            300.07766     -422.57134      3085.0258      172786.19      0.84589502     16270.542    
19896000 296.64766683374 -577.978458640909 3084.9812957972299046 172786.188053555 0.8458950158969319455 29.593756371208900902 197.29170914139200477 16273.62274461080051
  19896000   0.5            296.64767     -577.97846      3084.9813      172786.19      0.84589502     16273.623    
19900000 347.5028 266.5492
19900000 297.735351485995 734.537221283672 3084.8170269302299857 172786.188053555 0.8458950158969319455 29.593756371208900902 197.29170914139200477 16277.689198669200778
  19900000   0.5            297.73535      734.53722      3084.817       172786.19      0.84589502     16277.689    
19904000 299.965286330367 -132.65934875023 3085.1962017876098798 172786.188053555 0.8458950158969319455 29.593756371208900902 197.29170914139200477 16280.468149632599307
  19904000   0.5            299.96529     -132.65935      3085.1962      172786.19      0.84589502     16280.468    
19908000 297.560617321774 -128.409579180582 3085.1873558209899784 172786.188053555 0.8458950158969319455 29.593756371208900902 197.29170914139200477 16283.351582420900741
  19908000   0.5            297.56062     -128.40958      3085.1874      172786.19      0.84589502     16283.352    
19910000 347.4012 265.2414
19912000 294.717017240828 994.04015926365 3085.5969581642898447 172786.188053555 0.8458950158969329447 29.593756371208900902 197.29170914139200477 16287.899937852300354
  19912000   0.5            294.71702      994.04016      3085.597       172786.19      0.84589502     16287.9      
19916000 296.656813486176 -408.732254552446 3085.776792980279879 172786.188053555 0.8458950158969329447 29.593756371208900902 197.29170914139200477 16291.634109819300647
  19916000   0.5            296.65681     -408.73225      3085.7768      172786.19      0.84589502     16291.634    
19920000 367.2047 247.3523
19920000 295.137563101139 -204.357679685787 3085.6766928596898651 172786.188053555 0.8458950158969329447 29.593756371208900902 197.29170914139200477 16295.876961126299648
  19920000   0.5            295.13756     -204.35768      3085.6767      172786.19      0.84589502     16295.877    
19924000 294.22238086847 -493.965305319928 3085.5046566027199333 172786.188053555 0.8458950158969319455 29.593756371208900902 197.29170914139200477 16298.424994482400507
  19924000   0.5            294.22238     -493.96531      3085.5047      172786.19      0.84589502     16298.425    
19928000 301.158539987528 52.6637735172144 3085.3114255454502199 172786.188053555 0.8458950158969319455 29.593756371208900902 197.29170914139200477 16302.78689558340011
  19928000   0.5            301.15854      52.663774      3085.3114      172786.19      0.84589502     16302.787    
19930000 345.3973 242.4759
19932000 299.080049865478 -551.948206481447 3085.1176913702897764 172786.188053555 0.8458950158969319455 29.593756371208900902 197.29170914139200477 16305.811096399200324
  19932000   0.5            299.08005     -551.94821      3085.1177      172786.19      0.84589502     16305.811    
19936000 292.51402641431 306.815850155205 3085.2460474954500569 172786.188053555 0.8458950158969319455 29.593756371208900902 197.29170914139200477 16312.285327045699887
  19936000   0.5            292.51403      306.81585      3085.246       172786.19      0.84589502     16312.285    
19940000 357.3516 254.7418
19940000 297.018676225404 85.8690390140086 3085.1826547431901417 172786.188053555 0.8458950158969319455 29.593756371208900902 197.29170914139200477 16315.336950540899124
  19940000   0.5            297.01868      85.869039      3085.1827      172786.19      0.84589502     16315.337    
19944000 295.647675349019 70.8537105565951 3085.4286251220100894 172786.188053555 0.8458950158969319455 29.593756371208900902 197.29170914139200477 16318.27288804320051
  19944000   0.5            295.64768      70.853711      3085.4286      172786.19      0.84589502     16318.273    
19948000 299.543940008816 359.90611276848 3085.1458333851801399 172786.188053555 0.8458950158969319455 29.593756371208900902 197.29170914139200477 16321.52396320509979
  19948000   0.5            299.54394      359.90611      3085.1458      172786.19      0.84589502     16321.524    
19950000 340.7660 249.7069
19952000 297.2266131843 -378.831701995479 3085.0733590874401671 172786.188053555 0.8458950158969329447 29.593756371208900902 197.29170914139200477 16324.254709800199635
  19952000   0.5            297.22661     -378.8317       3085.0734      172786.19      0.84589502     16324.255    
19956000 296.969657434155 240.262631804935 3084.9428561456102216 172786.188053555 0.8458950158969319455 29.593756371208900902 197.29170914139200477 16327.042091208399142
  19956000   0.5            296.96966      240.26263      3084.9429      172786.19      0.84589502     16327.042    
19960000 340.2956 244.1371
19960000 296.771208243065 -369.971033384061 3085.0389364562897754 172786.188053555 0.8458950158969319455 29.593756371208900902 197.29170914139200477 16329.865505507999842
  19960000   0.5            296.77121     -369.97103      3085.0389      172786.19      0.84589502     16329.866    
19964000 297.810975296498 -238.878757822005 3085.068110694439838 172786.188053555 0.8458950158969319455 29.593756371208900902 197.29170914139200477 16332.881839720899734
  19964000   0.5            297.81098     -238.87876      3085.0681      172786.19      0.84589502     16332.882    
19968000 299.496032379422 -378.726083522407 3085.0622717259097954 172786.188053555 0.8458950158969319455 29.593756371208900902 197.29170914139200477 16335.957481410099717
  19968000   0.5            299.49603     -378.72608      3085.0623      172786.19      0.84589502     16335.957    
19970000 354.4546 262.8177
19972000 294.441426580108 -79.9435434471326 3085.370416344790101 172786.188053555 0.8458950158969329447 29.593756371208900902 197.29170914139200477 16339.131920105399331
  19972000   0.5            294.44143     -79.943543      3085.3704      172786.19      0.84589502     16339.132    
19976000 299.372943248159 -368.361368469935 3085.2081267284697788 172786.188053555 0.8458950158969329447 29.593756371208900902 197.29170914139200477 16341.967282170000544
  19976000   0.5            299.37294     -368.36137      3085.2081      172786.19      0.84589502     16341.967    
19980000 371.7223 248.2743
19980000 295.823594068453 -92.1303025386969 3085.505628885529859 172786.188053555 0.8458950158969319455 29.593756371208900902 197.29170914139200477 16344.927256661299907
  19980000   0.5            295.82359     -92.130303      3085.5056      172786.19      0.84589502     16344.927    
19984000 296.987316430793 54.4309160234854 3085.093077052710214 172786.188053555 0.8458950158969319455 29.593756371208900902 197.29170914139200477 16348.901465224500498
  19984000   0.5            296.98732      54.430916      3085.0931      172786.19      0.84589502     16348.901    
19988000 299.665429935007 -39.1676257183566 3084.7077684437199423 172786.188053555 0.8458950158969319455 29.593756371208900902 197.29170914139200477 16351.189730208499896
  19988000   0.5            299.66543     -39.167626      3084.7078      172786.19      0.84589502     16351.19     
19990000 356.7130 262.3038
19992000 301.656117604201 233.688089026831 3084.5013454573299896 172786.188053555 0.8458950158969319455 29.593756371208900902 197.29170914139200477 16354.630716506300814
  19992000   0.5            301.65612      233.68809      3084.5013      172786.19      0.84589502     16354.631    
19996000 300.883155414739 -191.666481984406 3084.6084261881501334 172786.188053555 0.8458950158969329447 29.593756371208900902 197.29170914139200477 16357.929080708499896
  19996000   0.5            300.88316     -191.66648      3084.6084      172786.19      0.84589502     16357.929    
20000000 342.0947 251.5315
20000000 296.393485839114 27.7755091093066 3084.93980187517991 172786.188053555 0.8458950158969319455 29.593756371208900902 197.29170914139200477 16361.800378228799673
  20000000   0.5            296.39349      27.775509      3084.9398      172786.19      0.84589502     16361.8      
Loop time of 96326.8 on 36 procs for 20000000 steps with 6000 atoms

Performance: 8.969 ns/day, 2.676 hours/ns, 207.626 timesteps/s, 1.246 Matom-step/s
99.2% CPU use with 36 MPI tasks x no OpenMP threads

MPI task timing breakdown:
Section |  min time  |  avg time  |  max time  |%varavg| %total
---------------------------------------------------------------
Pair    | 8003       | 12615      | 16685      |2370.1 | 13.10
Bond    | 91.242     | 110.98     | 125.94     |  90.1 |  0.12
Kspace  | 68990      | 72372      | 76576      | 877.9 | 75.13
Neigh   | 167.47     | 173.43     | 178.59     |  21.5 |  0.18
Comm    | 7401.5     | 8763.7     | 10605      | 929.8 |  9.10
Output  | 0.21014    | 0.53622    | 0.55055    |   7.5 |  0.00
Modify  | 63.075     | 73.738     | 86.568     |  66.5 |  0.08
Other   |            | 2218       |            |       |  2.30

Nlocal:        166.667 ave         205 max         116 min
Histogram: 3 1 1 3 3 5 8 5 4 3
Nghost:        3445.86 ave        3937 max        2822 min
Histogram: 6 2 0 0 5 3 6 6 5 3
Neighs:        41459.2 ave       58844 max       20105 min
Histogram: 2 3 1 3 3 8 5 4 6 1

Total # of neighbors = 1492530
Ave neighs/atom = 248.755
Ave special neighs/atom = 2
Neighbor list builds = 96721
Dangerous builds = 0
