LAMMPS (2 Aug 2023)
WARNING: Using I/O redirection is unreliable with parallel runs. Better to use the -in switch to read input files. (../lammps.cpp:537)
Reading data file ...
  orthogonal box = (0 0 0) to (55.912882 55.912882 55.912882)
  4 by 3 by 3 MPI processor grid
  reading atoms ...
  6000 atoms
  scanning bonds ...
  1 = max bonds/atom
  scanning angles ...
  1 = max angles/atom
  reading bonds ...
  4000 bonds
  reading angles ...
  2000 angles
Finding 1-2 1-3 1-4 neighbors ...
  special bond factors lj:    0        0        0       
  special bond factors coul:  0        0        0       
     2 = max # of 1-2 neighbors
     1 = max # of 1-3 neighbors
     1 = max # of 1-4 neighbors
     2 = max # of special neighbors
  special bonds CPU = 0.002 seconds
  read_data CPU = 0.556 seconds
Setting atom values ...
  4000 settings made for charge
Setting atom values ...
  2000 settings made for charge
4000 atoms in group oxy
2000 atoms in group carb
PPPM initialization ...
  using 12-bit tables for long-range coulomb (../kspace.cpp:342)
  G vector (1/distance) = 0.2711386
  grid = 54 54 54
  stencil order = 5
  estimated absolute RMS force accuracy = 0.00031073065
  estimated relative force accuracy = 9.3575612e-07
  using double precision KISS FFT
  3d grid and FFT values/proc = 13125 5832
Generated 1 of 1 mixed pair_coeff terms from arithmetic mixing rule
Neighbor list info ...
  update: every = 1 steps, delay = 0 steps, check = yes
  max neighbors/atom: 2000, page size: 100000
  master list distance cutoff = 15
  ghost atom cutoff = 15
  binsize = 7.5, bins = 8 8 8
  1 neighbor lists, perpetual/occasional/extra = 1 0 0
  (1) pair lj/cut/coul/long, perpetual
      attributes: half, newton on
      pair build: half/bin/newton
      stencil: half/bin/3d
      bin: standard
Setting up cg style minimization ...
  Unit style    : real
  Current step  : 0
Per MPI rank memory allocation (min/avg/max) = 9.071 | 9.171 | 9.266 Mbytes
   Step          Temp          E_pair         E_mol          TotEng         Press     
         0   0             -1991.5239      6.7006332e-05 -1991.5238      4671.8647    
      2731   0             -9723.8089      18.919154     -9704.8898     -268.85996    
Loop time of 32.5886 on 36 procs for 2731 steps with 6000 atoms

99.3% CPU use with 36 MPI tasks x no OpenMP threads

Minimization stats:
  Stopping criterion = energy tolerance
  Energy initial, next-to-last, final = 
     -1991.52383942696   -9704.8839665378  -9704.88977107986
  Force two-norm initial, final = 440.89082 4.6884561
  Force max component initial, final = 16.949562 1.2397696
  Final line search alpha, max atom move = 0.052748857 0.065396431
  Iterations, force evaluations = 2731 5425

MPI task timing breakdown:
Section |  min time  |  avg time  |  max time  |%varavg| %total
---------------------------------------------------------------
Pair    | 1.9853     | 5.4827     | 11.609     |  99.8 | 16.82
Bond    | 0.025324   | 0.035186   | 0.051569   |   3.5 |  0.11
Kspace  | 18.569     | 24.915     | 28.481     |  47.7 | 76.45
Neigh   | 0.074789   | 0.077592   | 0.078934   |   0.4 |  0.24
Comm    | 1.6262     | 1.7396     | 2.022      |   7.1 |  5.34
Output  | 0          | 0          | 0          |   0.0 |  0.00
Modify  | 0          | 0          | 0          |   0.0 |  0.00
Other   |            | 0.339      |            |       |  1.04

Nlocal:        166.667 ave         300 max          83 min
Histogram: 3 6 8 5 4 3 3 2 0 2
Nghost:        3570.14 ave        4484 max        3043 min
Histogram: 8 0 8 8 0 3 6 1 0 2
Neighs:        49670.4 ave      126236 max       11287 min
Histogram: 4 10 6 2 6 4 1 1 0 2

Total # of neighbors = 1788136
Ave neighs/atom = 298.02267
Ave special neighs/atom = 2
Neighbor list builds = 32
Dangerous builds = 0
PPPM initialization ...
  using 12-bit tables for long-range coulomb (../kspace.cpp:342)
  G vector (1/distance) = 0.2711386
  grid = 54 54 54
  stencil order = 5
  estimated absolute RMS force accuracy = 0.00031073065
  estimated relative force accuracy = 9.3575612e-07
  using double precision KISS FFT
  3d grid and FFT values/proc = 13125 5832
Generated 1 of 1 mixed pair_coeff terms from arithmetic mixing rule
Setting up Verlet run ...
  Unit style    : real
  Current step  : 2731
  Time step     : 0.1
Per MPI rank memory allocation (min/avg/max) = 8.101 | 8.254 | 8.953 Mbytes
   Step         PotEng         KinEng         TotEng         Press           Temp       c_theta_ave    c_length_ave    v_Density   
      2731  -9704.8898      5364.5638     -4340.3259      1134.0559      300            179.41082      1.1608354      0.8361609    
      3000  -8758.8412      5552.6572     -3206.184       210.12843      310.51866      178.28366      1.1621216      0.82611452   
      4000  -5597.6109      5964.343       366.7321      -53.671044      333.54117      176.38029      1.1613625      0.69225283   
      5000  -3970.6929      5305.7132      1335.0203     -32.16553       296.70892      175.42121      1.1608834      0.65057141   
      6000  -3658.0186      5629.3296      1971.311       590.56295      314.80637      175.00908      1.1603544      0.62786275   
      7000  -2683.7428      4993.9628      2310.22        38.920339      279.27505      175.02657      1.1606485      0.61271331   
      8000  -2121.9934      4698.9945      2577.0011     -340.62373      262.77967      175.10705      1.1608738      0.60340474   
      9000  -2355.162       5082.1219      2726.96       -25.996388      284.20513      175.07123      1.1606844      0.60197476   
     10000  -2577.4356      5362.8771      2785.4415      111.38002      299.90567      174.94569      1.1606709      0.59951822   
     11000  -2992.1439      5852.703       2860.5591      341.79097      327.29798      174.90416      1.1606133      0.60129516   
     12000  -3131.2192      6009.8043      2878.5851      490.88858      336.08348      174.86572      1.1605618      0.61105561   
     13000  -2559.07        5532.2509      2973.1809      167.74934      309.37748      174.78435      1.1606289      0.6048304    
     14000  -2067.4419      5124.1586      3056.7167      15.146619      286.55593      174.83381      1.1606746      0.60362859   
     15000  -1801.4065      4862.3252      3060.9187     -65.441132      271.91354      174.81122      1.1606486      0.60695159   
     16000  -1755.9078      4865.0689      3109.1611     -139.11159      272.06698      174.79443      1.1606534      0.60293691   
     17000  -2083.9316      5292.6355      3208.7038      163.9063       295.97758      174.82338      1.1606142      0.60898145   
     18000  -2486.9298      5714.1548      3227.225       144.31029      319.55001      174.75767      1.1607321      0.60853295   
     19000  -2731.919       5870.1951      3138.2761      294.74369      328.27618      174.77931      1.1606841      0.61721534   
     20000  -2551.7098      5706.8176      3155.1078      904.52913      319.1397       174.77679      1.1599085      0.62138716   
     21000  -2096.9481      5252.9947      3156.0466     -479.94144      293.76077      174.81394      1.1612625      0.62494148   
     22000  -1805.8616      4943.5267      3137.6652     -17.2601        276.45454      174.77614      1.1606187      0.62754502   
     23000  -1783.5923      4950.4738      3166.8815      47.342253      276.84303      174.85747      1.1605081      0.62905632   
     24000  -1973.3332      5235.0664      3261.7332     -164.9689       292.75817      174.78258      1.1608241      0.62648183   
     25000  -2291.158       5628.9401      3337.7821      324.68614      314.78459      174.74427      1.1605564      0.63122278   
     26000  -2498.0071      5794.0952      3296.088       401.38951      324.02048      174.73412      1.1605538      0.6390647    
     27000  -2471.6447      5675.9425      3204.2978      97.259927      317.41308      174.71622      1.1607499      0.64356885   
     28000  -2127.9509      5367.8861      3239.9352      264.73582      300.18579      174.7474       1.1604669      0.64499723   
     29000  -1749.5098      5038.0748      3288.565      -35.094565      281.7419       174.72162      1.1606739      0.65227921   
     30000  -1647.3595      4983.2487      3335.8893     -449.66567      278.67589      174.69318      1.1609737      0.64493103   
     31000  -1846.7348      5211.9767      3365.2419      541.69755      291.46694      174.70889      1.1601398      0.65374092   
     32000  -2085.2214      5586.7838      3501.5625      56.896146      312.4271       174.67202      1.1608117      0.66016846   
     33000  -2381.9859      5784.4142      3402.4283      6.6787536      323.47909      174.7612       1.1609642      0.66290159   
     34000  -2417.625       5743.2917      3325.6667      525.19441      321.17942      174.75225      1.1602875      0.66230278   
     35000  -2083.418       5399.0904      3315.6724      78.688602      301.93081      174.64847      1.1607101      0.67381146   
     36000  -1792.6182      5080.6889      3288.0707      12.950739      284.12499      174.6415       1.1606457      0.67990635   
     37000  -1684.4833      4960.8279      3276.3447      51.424405      277.42206      174.66986      1.1605358      0.68185353   
     38000  -1815.2597      5150.3643      3335.1046     -99.910032      288.02142      174.75336      1.1607549      0.68163868   
     39000  -2081.827       5487.8412      3406.0142      92.969005      306.89398      174.802        1.1605677      0.67858249   
     40000  -2356.9128      5666.0455      3309.1326      374.85257      316.85962      174.80357      1.1605284      0.69546098   
     41000  -2388.1776      5708.9672      3320.7896      53.497199      319.25991      174.74872      1.1608452      0.70233798   
     42000  -2192.6121      5504.7219      3312.1098      286.03678      307.83799      174.71505      1.1604664      0.69950163   
     43000  -1891.1685      5137.3152      3246.1466      211.5134       287.29168      174.68563      1.1605162      0.71120294   
     44000  -1699.9253      5083.3793      3383.454      -301.04149      284.27545      174.61915      1.1608603      0.71411451   
     45000  -1869.1561      5140.4867      3271.3306      216.19296      287.46904      174.65898      1.1605027      0.72989823   
     46000  -2079.5125      5308.7426      3229.2301      111.40185      296.87833      174.70893      1.1605516      0.72701837   
     47000  -2415.0584      5691.8521      3276.7937     -10.317978      318.30279      174.73883      1.1609076      0.74216186   
     48000  -2550.68        5666.2104      3115.5304      585.32053      316.86884      174.73382      1.1602817      0.73936154   
     49000  -2364.3835      5440.3543      3075.9709      163.16955      304.2384       174.75046      1.1606455      0.74235702   
     50000  -2121.7587      5254.7183      3132.9596     -341.06513      293.85716      174.78427      1.1610272      0.74444358   
     51000  -2015.1986      5148.2451      3133.0464      589.48905      287.90291      174.76906      1.1600727      0.75274124   
     52000  -1983.1103      5118.098       3134.9877     -289.49944      286.21701      174.76467      1.1609098      0.75597755   
     53000  -2068.4595      5290.2263      3221.7668     -233.78867      295.84286      174.76384      1.1608753      0.74957856   
     54000  -2335.4448      5603.6061      3268.1613      521.16647      313.36785      174.73861      1.1603092      0.75849302   
     55000  -2480.3422      5682.9485      3202.6063      79.062766      317.80488      174.73371      1.1607615      0.76153466   
     56000  -2430.5906      5534.1123      3103.5217      207.16321      309.48158      174.81695      1.1607035      0.77200014   
     57000  -2250.2057      5342.4804      3092.2747      211.52471      298.76504      174.79087      1.1604705      0.76594281   
     58000  -2074.8776      5100.581       3025.7034     -97.150457      285.23741      174.77195      1.1607305      0.77827282   
     59000  -1995.7344      5067.266       3071.5316      29.032008      283.37435      174.71655      1.1605988      0.78425623   
     60000  -2095.3109      5236.2459      3140.935       94.18865       292.82413      174.65579      1.1606089      0.78643524   
     61000  -2276.514       5433.4355      3156.9215      52.171759      303.85148      174.68893      1.1606769      0.77786771   
     62000  -2505.4795      5600.4127      3094.9332      384.80046      313.18927      174.78005      1.1605149      0.78944819   
     63000  -2388.7166      5558.4461      3169.7295      250.48095      310.84239      174.69395      1.1605429      0.78058221   
     64000  -2241.2836      5465.2862      3224.0026     -89.382899      305.63265      174.78969      1.1608013      0.78128697   
     65000  -2132.429       5202.8763      3070.4473      339.79399      290.95802      174.80593      1.1604833      0.80368193   
     66000  -2023.0045      5106.0147      3083.0102     -165.15902      285.54128      174.79252      1.1606754      0.79824661   
     67000  -2252.3475      5121.5801      2869.2326     -382.28873      286.41173      174.77154      1.1610653      0.81581705   
     68000  -2284.5393      5335.309       3050.7697      725.91126      298.364        174.74554      1.1600794      0.80257713   
     69000  -2375.6287      5534.9841      3159.3554     -13.287461      309.53033      174.68664      1.160784       0.8025062    
     70000  -2386.3545      5548.6533      3162.2988      147.53537      310.29475      174.71761      1.160738       0.80454506   
     71000  -2290.6362      5440.4479      3149.8117      528.35474      304.24363      174.78288      1.1602867      0.80100315   
     72000  -2105.033       5274.712       3169.6791     -336.27851      294.97526      174.73259      1.1608493      0.79468078   
     73000  -2089.2742      5138.1831      3048.9089      63.912965      287.34021      174.72749      1.1606529      0.8161195    
     74000  -2152.3592      5221.8019      3069.4427      251.38279      292.01639      174.70701      1.1604484      0.81738059   
     75000  -2313.5879      5288.9651      2975.3772     -179.3581       295.77233      174.75764      1.1608131      0.81282716   
     76000  -2430.9678      5528.9389      3097.9711      294.84669      309.19227      174.82814      1.1605838      0.81740507   
     77000  -2536.3092      5514.9169      2978.6077      551.14275      308.40812      174.88648      1.160294       0.81487137   
     78000  -2433.2783      5440.1384      3006.8601     -539.21095      304.22632      174.7337       1.1611945      0.81692633   
     79000  -2131.4118      5329.0504      3197.6386      467.49771      298.014        174.68565      1.1603235      0.81130746   
     80000  -2050.6215      5206.3347      3155.7132      180.4101       291.15142      174.69525      1.1605386      0.8196685    
     81000  -2068.2832      5239.3379      3171.0547     -326.80782      292.99705      174.74858      1.1608667      0.82380433   
     82000  -2333.7617      5359.0728      3025.3111      301.10923      299.69293      174.84623      1.1605274      0.84081252   
     83000  -2439.4789      5502.8649      3063.386       166.68919      307.73415      174.77539      1.1606135      0.83168265   
     84000  -2425.9504      5534.676       3108.7256      151.675        309.5131       174.74796      1.1606214      0.82619567   
     85000  -2396.8566      5453.5096      3056.653       325.99325      304.97407      174.75725      1.1605087      0.82596007   
     86000  -2234.3243      5283.2462      3048.9218      18.706848      295.45251      174.76663      1.1606943      0.82091695   
     87000  -2084.1703      5248.9963      3164.826      -31.491365      293.53717      174.72447      1.160709       0.8205296    
     88000  -2038.7358      5267.9324      3229.1966      310.17927      294.59613      174.74104      1.1604094      0.82437189   
     89000  -2096.8349      5154.2679      3057.4331     -267.61528      288.23972      174.75943      1.1608521      0.82147705   
     90000  -2208.7692      5314.8928      3106.1236      147.58825      297.22227      174.71586      1.1606153      0.82681548   
     91000  -2401.8444      5509.9441      3108.0997      765.66749      308.13003      174.72126      1.1601943      0.83189445   
     92000  -2401.7468      5514.1653      3112.4185     -380.8143       308.36609      174.7645       1.1610539      0.82983546   
     93000  -2357.134       5445.6743      3088.5403      234.57926      304.5359       174.83733      1.1605418      0.83966341   
     94000  -2220.1583      5290.3496      3070.1913      229.2562       295.84975      174.74999      1.1604493      0.8441138    
     95000  -2063.9581      5155.9498      3091.9918     -131.515        288.33378      174.69017      1.1607848      0.84240228   
     96000  -2001.1869      5180.577       3179.3901      144.1575       289.71099      174.67144      1.1604709      0.82668696   
     97000  -2217.7848      5375.3006      3157.5159      190.92281      300.60043      174.70347      1.1605701      0.84002785   
     98000  -2378.0495      5532.6485      3154.599       107.55633      309.39972      174.72831      1.1607026      0.8397091    
     99000  -2367.1053      5598.9341      3231.8288      278.55685      313.10658      174.77655      1.1605415      0.83818641   
    100000  -2290.3823      5434.7698      3144.3876      112.50654      303.9261       174.78509      1.1606756      0.84673361   
    101000  -2152.1659      5367.524       3215.3581      67.182772      300.16554      174.72555      1.1606146      0.84172823   
    102000  -2100.3501      5336.5925      3236.2424      85.97757       298.43577      174.74095      1.1605969      0.84017596   
    102731  -2205.476       5411.5655      3206.0895      31.401215      302.62845      174.79193      1.1607058      0.84227842   
Loop time of 552.194 on 36 procs for 100000 steps with 6000 atoms

Performance: 1.565 ns/day, 15.339 hours/ns, 181.096 timesteps/s, 1.087 Matom-step/s
99.2% CPU use with 36 MPI tasks x no OpenMP threads

MPI task timing breakdown:
Section |  min time  |  avg time  |  max time  |%varavg| %total
---------------------------------------------------------------
Pair    | 20.177     | 57.392     | 110.11     | 282.6 | 10.39
Bond    | 0.46209    | 0.73139    | 1.0664     |  15.7 |  0.13
Kspace  | 339.16     | 394.94     | 432.39     | 111.0 | 71.52
Neigh   | 0.22593    | 0.2338     | 0.23791    |   0.6 |  0.04
Comm    | 25.276     | 27.509     | 31.473     |  25.5 |  4.98
Output  | 0.013845   | 0.01434    | 0.02981    |   2.2 |  0.00
Modify  | 33.163     | 52.95      | 70.179     | 218.4 |  9.59
Other   |            | 18.42      |            |       |  3.34

Nlocal:        166.667 ave         203 max         105 min
Histogram: 1 0 2 3 2 6 10 3 5 4
Nghost:        3424.53 ave        3619 max        3275 min
Histogram: 4 3 6 4 7 2 4 3 1 2
Neighs:        41071.5 ave       57740 max       22187 min
Histogram: 2 1 3 3 4 11 5 4 0 3

Total # of neighbors = 1478574
Ave neighs/atom = 246.429
Ave special neighs/atom = 2
Neighbor list builds = 121
Dangerous builds = 0
PPPM initialization ...
  using 12-bit tables for long-range coulomb (../kspace.cpp:342)
  G vector (1/distance) = 0.27127591
  grid = 54 54 54
  stencil order = 5
  estimated absolute RMS force accuracy = 0.00030852446
  estimated relative force accuracy = 9.2911224e-07
  using double precision KISS FFT
  3d grid and FFT values/proc = 13125 5832
Generated 1 of 1 mixed pair_coeff terms from arithmetic mixing rule
Setting up Verlet run ...
  Unit style    : real
  Current step  : 102731
  Time step     : 0.2
Per MPI rank memory allocation (min/avg/max) = 8.101 | 8.264 | 8.957 Mbytes
   Step         PotEng         KinEng         TotEng         Press           Temp       c_theta_ave    c_length_ave    v_Density   
    102731  -2205.4759      5411.5655      3206.0896      31.401345      302.62845      174.79193      1.1607058      0.84227842   
    103000  -2099.385       5169.4345      3070.0494      76.694211      289.08787      174.79413      1.1605467      0.8418584    
    104000  -2260.8992      5266.4799      3005.5807      80.752156      294.5149       174.76782      1.1605603      0.8519036    
    105000  -2407.4432      5422.8626      3015.4194     -170.97312      303.26021      174.78299      1.1608828      0.84770633   
    106000  -2368.5838      5340.3886      2971.8048      416.09517      298.64806      174.8198       1.1604308      0.85530686   
    107000  -2233.0196      5279.0612      3046.0416      627.77002      295.21848      174.88322      1.16018        0.85431032   
    108000  -2328.9471      5381.5625      3052.6153     -439.201        300.95061      174.78182      1.161024       0.84819957   
    109000  -2387.7745      5416.5217      3028.7472      99.910297      302.90562      174.73862      1.1606662      0.85054407   
    110000  -2241.1538      5354.3895      3113.2357      387.11175      299.43103      174.83132      1.1604395      0.85026368   
    111000  -2155.4705      5217.7917      3062.3212      29.791645      291.79213      174.77005      1.1607068      0.84802635   
    112000  -2210.6487      5451.6992      3241.0505      140.91622      304.87283      174.61339      1.1606479      0.83877541   
    113000  -2188.212       5504.9836      3316.7715      231.82641      307.85263      174.56026      1.1605406      0.84280206   
    114000  -1993.1249      5251.3802      3258.2552      74.979488      293.67048      174.65343      1.1606436      0.84142844   
    115000  -2199.0946      5295.4678      3096.3732      55.705464      296.13597      174.77543      1.160679       0.84075238   
    116000  -2364.424       5510.5688      3146.1447      130.48519      308.16496      174.76646      1.1606257      0.84935491   
    117000  -2297.8996      5299.0137      3001.1141      205.01987      296.33427      174.82278      1.1604708      0.8496284    
    118000  -2226.3223      5242.5232      3016.2009      1.5187244      293.17518      174.75638      1.1606394      0.85475396   
    119000  -2350.7853      5408.8465      3058.0612     -364.23881      302.4764       174.72726      1.1609731      0.84670204   
    120000  -2298.0705      5487.397       3189.3265      668.47657      306.86914      174.7776       1.160236       0.84887319   
    121000  -2265.3695      5294.8872      3029.5177      348.00294      296.10351      174.77855      1.1603977      0.85126538   
    122000  -2253.0578      5411.7008      3158.643      -236.71097      302.63602      174.73059      1.1608903      0.849135     
    123000  -2298.902       5423.4757      3124.5737      150.49965      303.2945       174.76551      1.1606869      0.85494735   
    124000  -2378.8069      5341.5972      2962.7903      870.27652      298.71565      174.87652      1.1600612      0.86298625   
    125000  -2212.0408      5241.1054      3029.0646     -102.16178      293.09589      174.78386      1.1607622      0.85738451   
    126000  -2246.2701      5425.5615      3179.2914     -104.2728       303.41114      174.72879      1.1608687      0.85415523   
    127000  -2280.1703      5437.0531      3156.8828      827.39277      304.05378      174.81259      1.1600641      0.84536543   
    128000  -2151.5572      5436.6666      3285.1094      282.31649      304.03217      174.68367      1.1604384      0.83712199   
    129000  -2247.2609      5267.5767      3020.3157     -383.36315      294.57623      174.76726      1.1610106      0.84432554   
    130000  -2329.5916      5320.8268      2991.2352      266.55413      297.55411      174.65111      1.1604516      0.84553578   
    131000  -2281.8652      5372.8008      3090.9356      208.34997      300.46063      174.7141       1.1606279      0.8519958    
    132000  -2249.3261      5411.7099      3162.3838     -40.48614       302.63653      174.73463      1.1607156      0.84191848   
    133000  -2358.3064      5389.1082      3030.8018      83.441811      301.37258      174.7312       1.1607567      0.8565721    
    134000  -2347.2977      5456.0523      3108.7546      487.2049       305.11626      174.72888      1.1604306      0.85414586   
    135000  -2264.8976      5264.6779      2999.7803     -79.477395      294.41412      174.76226      1.1607386      0.84030667   
    136000  -2217.5956      5276.4916      3058.896      -447.27998      295.07477      174.72283      1.1610969      0.84154908   
    137000  -2361.9353      5397.8648      3035.9295      463.20457      301.86227      174.82104      1.1603527      0.84265585   
    138000  -2188.6816      5308.1279      3119.4463      322.37953      296.84396      174.69491      1.1604399      0.83833058   
    139000  -2168.6337      5202.4809      3033.8472     -1100.7789      290.93591      174.61662      1.1614702      0.84275545   
    140000  -2341.7379      5414.5312      3072.7932      155.41502      302.7943       174.71814      1.1605891      0.85034327   
    141000  -2368.3926      5432.7496      3064.357       553.89417      303.81312      174.70184      1.1603054      0.85568535   
    142000  -2237.3456      5181.6712      2944.3256     -10.476556      289.77218      174.76712      1.1606653      0.84511643   
    143000  -2302.1098      5344.1009      3041.9912     -26.962108      298.85566      174.87288      1.160717       0.84769396   
    144000  -2262.233       5402.3025      3140.0695      352.8447       302.11044      174.70996      1.1604294      0.84176989   
    145000  -2298.6186      5326.2964      3027.6778      213.85393      297.85999      174.70602      1.1605037      0.84968426   
    146000  -2213.2396      5229.4803      3016.2407     -584.0176       292.44579      174.66431      1.1611496      0.8491223    
    147000  -2243.9762      5303.032       3059.0558      277.61143      296.55898      174.78169      1.1604647      0.84115673   
    148000  -2334.3356      5453.3304      3118.9948      618.42984      304.96405      174.78587      1.1602673      0.84736566   
    149000  -2345.6145      5390.6947      3045.0803     -374.40041      301.46131      174.82484      1.1609829      0.86040407   
    150000  -2177.2566      5252.7022      3075.4456     -101.3317       293.74441      174.76418      1.1607517      0.85147325   
    151000  -2391.8155      5367.4889      2975.6735      534.36691      300.16358      174.79063      1.1603148      0.85740559   
    152000  -2431.3911      5366.946       2935.5549      43.505984      300.13322      174.84965      1.1606825      0.86116752   
    153000  -2358.3988      5310.6769      2952.2781     -416.10701      296.9865       174.80821      1.1610253      0.87101809   
    154000  -2329.8501      5357.3163      3027.4662      255.06667      299.5947       174.75828      1.1604538      0.86061672   
    155000  -2363.7547      5412.526       3048.7713      467.96774      302.68217      174.7285       1.1603894      0.86202849   
    156000  -2208.6211      5374.8709      3166.2498     -567.36243      300.5764       174.7317       1.1611104      0.84210137   
    157000  -2246.0065      5296.0733      3050.0668      88.188293      296.16984      174.76386      1.1605998      0.85150945   
    158000  -2260.8437      5309.3935      3048.5498      241.18551      296.91473      174.76819      1.1605202      0.85631467   
    159000  -2402.8477      5449.3541      3046.5064      81.307472      304.74168      174.79805      1.1606252      0.85924666   
    160000  -2267.607       5254.8921      2987.2851     -210.08531      293.86688      174.76663      1.1608743      0.86794412   
    161000  -2268.9797      5306.1652      3037.1855      494.19148      296.7342       174.74235      1.1602772      0.85875197   
    162000  -2338.2994      5347.2954      3008.996       462.80273      299.0343       174.75638      1.1603995      0.85697949   
    163000  -2242.4004      5423.3881      3180.9877     -603.12264      303.2896       174.73848      1.1612287      0.85745316   
    164000  -2216.3824      5321.0865      3104.7041      183.82452      297.56864      174.75217      1.1605682      0.85639715   
    165000  -2368.5645      5293.3296      2924.7651      623.39025      296.0164       174.80095      1.1602732      0.86305067   
    166000  -2329.2079      5343.1816      3013.9737     -458.53517      298.80425      174.6979       1.1611358      0.85686762   
    167000  -2289.0517      5452.874       3163.8223     -118.27537      304.93853      174.74479      1.1607821      0.85126635   
    168000  -2349.8477      5254.0002      2904.1525      487.55569      293.817        174.77658      1.1603159      0.86489827   
    169000  -2239.2546      5406.2189      3166.9643      80.730587      302.32945      174.69697      1.1606218      0.84977286   
    170000  -2199.4087      5329.4088      3130.0001     -288.39355      298.03404      174.64698      1.1609188      0.84276801   
    171000  -2198.1388      5391.0795      3192.9407      302.22787      301.48282      174.73769      1.1604406      0.8491805    
    172000  -2316.7287      5287.387       2970.6583      200.81102      295.68408      174.75456      1.1605054      0.85358286   
    173000  -2223.1495      5352.2448      3129.0954      86.837166      299.31109      174.68064      1.1606721      0.85022695   
    174000  -2200.8204      5335.0091      3134.1887      118.39392      298.34722      174.72302      1.1606883      0.8522649    
    175000  -2185.2154      5246.7308      3061.5154      209.31703      293.41048      174.624        1.1605268      0.84284378   
    176000  -2254.9973      5389.6623      3134.665       83.76796       301.40357      174.72421      1.1606083      0.83710982   
    177000  -2283.2711      5318.9311      3035.66        65.194402      297.4481       174.71964      1.1606421      0.84786268   
    178000  -2292.7822      5339.5657      3046.7835      248.50679      298.60204      174.81811      1.1604672      0.84722727   
    179000  -2269.7565      5353.5422      3083.7857      79.686808      299.38364      174.7519       1.1605888      0.85467835   
    180000  -2323.9056      5390.2962      3066.3906     -457.55517      301.43902      174.74265      1.1610181      0.85194022   
    181000  -2344.9867      5361.0124      3016.0257      474.14861      299.8014       174.75357      1.1603334      0.86104648   
    182000  -2206.4158      5279.9385      3073.5226      298.72911      295.26753      174.71946      1.1604899      0.84814619   
    183000  -2254.1202      5341.0045      3086.8844     -69.090648      298.6825       174.65989      1.1607315      0.85064492   
    184000  -2349.8524      5431.6486      3081.7963      143.91751      303.75155      174.73643      1.1606661      0.86783809   
    185000  -2220.8189      5403.2806      3182.4616      670.86269      302.16514      174.72142      1.1602085      0.85936691   
    186000  -2175.266       5377.9002      3202.6342     -190.12959      300.7458       174.67209      1.1607732      0.84823014   
    187000  -2266.4397      5403.3101      3136.8704     -196.9313       302.16679      174.63044      1.160863       0.85272017   
    188000  -2260.5615      5427.4569      3166.8955      319.74861      303.51714      174.71424      1.1604523      0.85138838   
    189000  -2084.6506      5359.1807      3274.5301      203.57019      299.69896      174.58121      1.1605903      0.85440092   
    190000  -2201.7768      5437.5576      3235.7808      28.490554      304.082        174.68986      1.1606486      0.8565151    
    191000  -2490.0008      5490.0331      3000.0323      121.71636      307.01656      174.81166      1.1606358      0.87073768   
    192000  -2324.1748      5384.1166      3059.9419      231.18027      301.09344      174.71682      1.1605361      0.86855021   
    193000  -2305.0797      5332.5938      3027.5141     -169.46638      298.21215      174.75575      1.160824       0.86376179   
    194000  -2359.6738      5428.1309      3068.4571      95.036285      303.55483      174.69551      1.1606812      0.86580409   
    195000  -2291.6113      5379.075       3087.4637      703.39356      300.8115       174.72603      1.160224       0.86542717   
    196000  -2257.5562      5299.3493      3041.7931     -67.2494        296.35304      174.75528      1.1607028      0.85665733   
    197000  -2297.1109      5403.2514      3106.1405     -53.648864      302.16351      174.70196      1.1607156      0.84903137   
    198000  -2306.5875      5307.1203      3000.5327      324.65928      296.78761      174.66158      1.1605605      0.86240537   
    199000  -2292.7568      5278.3603      2985.6035      266.84673      295.17928      174.70875      1.1604485      0.86059181   
    200000  -2279.3358      5290.0469      3010.7111     -427.56788      295.83282      174.7432       1.1610326      0.85556559   
    201000  -2322.8704      5386.567       3063.6966      187.01363      301.23047      174.7534       1.160603       0.86054695   
    202000  -2292.2749      5305.6552      3013.3803      292.59178      296.70568      174.72165      1.1605108      0.86578004   
    202731  -2283.5084      5413.6679      3130.1596      247.90404      302.74603      174.66769      1.1605699      0.86778547   
Loop time of 528.383 on 36 procs for 100000 steps with 6000 atoms

Performance: 3.270 ns/day, 7.339 hours/ns, 189.257 timesteps/s, 1.136 Matom-step/s
99.2% CPU use with 36 MPI tasks x no OpenMP threads

MPI task timing breakdown:
Section |  min time  |  avg time  |  max time  |%varavg| %total
---------------------------------------------------------------
Pair    | 40.584     | 61.696     | 79.11      | 132.1 | 11.68
Bond    | 0.61665    | 0.73263    | 0.88737    |   6.8 |  0.14
Kspace  | 345.09     | 364.53     | 385.19     |  54.6 | 68.99
Neigh   | 0.29949    | 0.30971    | 0.31515    |   0.7 |  0.06
Comm    | 28.857     | 30.338     | 32.604     |  15.5 |  5.74
Output  | 0.013542   | 0.013924   | 0.025171   |   1.6 |  0.00
Modify  | 32.298     | 52.318     | 69.226     | 219.5 |  9.90
Other   |            | 18.44      |            |       |  3.49

Nlocal:        166.667 ave         194 max         127 min
Histogram: 1 1 1 6 5 2 5 8 5 2
Nghost:        3493.69 ave        3591 max        3407 min
Histogram: 3 5 3 3 3 4 8 4 2 1
Neighs:        42079.9 ave       52731 max       28439 min
Histogram: 1 3 2 4 4 4 7 4 5 2

Total # of neighbors = 1514878
Ave neighs/atom = 252.47967
Ave special neighs/atom = 2
Neighbor list builds = 214
Dangerous builds = 0
PPPM initialization ...
  using 12-bit tables for long-range coulomb (../kspace.cpp:342)
  G vector (1/distance) = 0.26739512
  grid = 50 50 50
  stencil order = 5
  estimated absolute RMS force accuracy = 0.00042236452
  estimated relative force accuracy = 1.2719382e-06
  using double precision KISS FFT
  3d grid and FFT values/proc = 12500 5000
Generated 1 of 1 mixed pair_coeff terms from arithmetic mixing rule
Setting up Verlet run ...
  Unit style    : real
  Current step  : 202731
  Time step     : 0.25
Per MPI rank memory allocation (min/avg/max) = 7.977 | 8.138 | 8.727 Mbytes
   Step         PotEng         KinEng         TotEng         Press           Temp       c_theta_ave    c_length_ave    v_Density   
    202731  -2283.5084      5413.6679      3130.1595      247.88467      302.74603      174.66769      1.1605699      0.86778547   
    203000  -2340.6559      5197.0016      2856.3457     -355.55842      290.62949      174.76743      1.1609852      0.86991448   
    204000  -2293.298       5331.9075      3038.6094     -315.94952      298.17377      174.74612      1.1609426      0.86431435   
    205000  -2367.6841      5447.4959      3079.8118      140.74929      304.63777      174.75278      1.1606367      0.87031836   
    206000  -2362.0679      5319.6682      2957.6003      498.68572      297.48932      174.73931      1.1603259      0.86228498   
    207000  -2410.0173      5275.1786      2865.1613      720.41497      295.00135      174.79005      1.1601917      0.8696067    
    208000  -2244.8028      5320.3024      3075.4995      277.56543      297.52479      174.7576       1.1604835      0.85554862   
    209000  -2293.8415      5404.2319      3110.3904      145.89134      302.21834      174.69491      1.1606031      0.86441013   
    210000  -2407.5101      5343.6181      2936.108       100.66653      298.82866      174.77604      1.160725       0.87025328   
    211000  -2309.9357      5282.7794      2972.8437     -223.2863       295.42641      174.8468       1.1608262      0.85115416   
    212000  -2310.8004      5353.0554      3042.2551     -641.05447      299.35642      174.72911      1.1611278      0.85580495   
    213000  -2392.3704      5334.0618      2941.6914     -107.03033      298.29425      174.76737      1.1608554      0.85861331   
    214000  -2246.7016      5374.2154      3127.5138      132.75601      300.53974      174.85848      1.1605973      0.84890981   
    215000  -2337.8696      5272.7085      2934.8389      434.85621      294.86322      174.82331      1.1604328      0.86446568   
    216000  -2350.4454      5337.4865      2987.0412      985.43236      298.48577      174.7908       1.1599203      0.86291011   
    217000  -2311.6165      5382.363       3070.7465      395.09156      300.99538      174.82013      1.1604166      0.86245856   
    218000  -2255.7591      5442.6774      3186.9183      155.18014      304.36831      174.78603      1.1606412      0.85638257   
    219000  -2220.6371      5443.669       3223.0319     -416.18885      304.42376      174.71533      1.1610103      0.84454287   
    220000  -2186.0245      5411.682       3225.6575     -250.08603      302.63497      174.67107      1.1608752      0.84793871   
    221000  -2231.6099      5407.2198      3175.61       -217.786        302.38543      174.71103      1.1609831      0.85458353   
    222000  -2234.0416      5429.8925      3195.851      -87.202346      303.65334      174.73524      1.1607882      0.84560119   
    223000  -2136.7347      5337.3542      3200.6195      396.26851      298.47837      174.69571      1.1604358      0.85433724   
    224000  -2317.4349      5326.7525      3009.3176      401.69212      297.88549      174.83003      1.1603821      0.85996585   
    225000  -2276.7857      5429.4416      3152.6559      362.89963      303.62813      174.67789      1.1604086      0.85619229   
    226000  -2278.8752      5396.631       3117.7558      371.24168      301.79327      174.71672      1.1604524      0.85801182   
    227000  -2289.6318      5409.8869      3120.2551     -47.011387      302.53458      174.71495      1.1607943      0.86112738   
    228000  -2192.6103      5391.1062      3198.4959     -61.490577      301.48432      174.66883      1.160741       0.85002065   
    229000  -2315.2763      5380.4008      3065.1246     -191.18298      300.88564      174.67451      1.1608691      0.86197198   
    230000  -2325.0845      5338.3078      3013.2234     -96.101774      298.5317       174.70455      1.1607254      0.86338467   
    231000  -2187.371       5489.1729      3301.8019      181.01896      306.96845      174.65901      1.1606316      0.85551298   
    232000  -2278.3287      5361.6871      3083.3584      270.51554      299.83913      174.71784      1.1605255      0.86301549   
    233000  -2431.4592      5369.5915      2938.1323      560.33018      300.28116      174.79688      1.1602474      0.86913551   
    234000  -2335.7829      5309.43        2973.6471      623.669        296.91677      174.81402      1.160251       0.86448865   
    235000  -2196.8197      5397.596       3200.7763      304.53718      301.84724      174.66418      1.1605063      0.85912906   
    236000  -2339.1316      5404.7626      3065.631      -109.35833      302.24801      174.73809      1.1608         0.86503816   
    237000  -2337.7361      5345.4821      3007.746      -467.57253      298.9329       174.7631       1.1610025      0.86076148   
    238000  -2276.5865      5304.6814      3028.0949     -570.84151      296.65122      174.71069      1.1611765      0.85797272   
    239000  -2256.1368      5376.928       3120.7912     -84.41189       300.69144      174.78111      1.1607672      0.85028841   
    240000  -2282.8223      5358.034       3075.2117      288.21643      299.63484      174.74209      1.1604754      0.85994966   
    241000  -2267.3655      5360.7215      3093.356       553.31706      299.78512      174.73146      1.1603287      0.86165643   
    242000  -2186.6487      5407.5256      3220.8768      447.93157      302.40253      174.71652      1.160314       0.84762228   
    243000  -2211.0121      5450.7365      3239.7244      528.13718      304.81899      174.67088      1.1602889      0.85408996   
    244000  -2267.8604      5301.684       3033.8235      194.42315      296.4836       174.73095      1.1605725      0.85674919   
    245000  -2282.7887      5371.8881      3089.0994     -187.21021      300.40959      174.77216      1.1608548      0.8555859    
    246000  -2290.9941      5482.6972      3191.7031     -836.40002      306.60632      174.67077      1.1613454      0.85851215   
    247000  -2287.4107      5398.9572      3111.5465     -184.14394      301.92336      174.72459      1.160886       0.86734848   
    248000  -2372.475       5423.414       3050.939       0.39363858     303.29105      174.69739      1.1606969      0.8715502    
    249000  -2357.581       5370.3592      3012.7782      470.53262      300.32409      174.75086      1.1603903      0.86886804   
    250000  -2364.2567      5331.0811      2966.8244      439.72817      298.12756      174.7581       1.1604088      0.86770682   
    251000  -2358.4006      5269.9857      2911.5851      555.54564      294.71095      174.78304      1.1602777      0.86013281   
    252000  -2238.149       5310.0665      3071.9175      519.14333      296.95237      174.76888      1.1603172      0.85123114   
    253000  -2243.1035      5315.2651      3072.1615      3.0155374      297.24309      174.74498      1.1606113      0.84357697   
    254000  -2253.9254      5296.3239      3042.3985     -235.19672      296.18385      174.70601      1.1608802      0.84585929   
    255000  -2167.2858      5253.3981      3086.1123     -413.1898       293.78333      174.70648      1.1609902      0.84312613   
    256000  -2244.3872      5272.5874      3028.2002     -82.187338      294.85644      174.71215      1.1607683      0.84981035   
    257000  -2218.5587      5306.4129      3087.8542      134.69638      296.74805      174.6698       1.1605687      0.84625004   
    258000  -2358.5984      5393.3049      3034.7065      146.49479      301.60727      174.73925      1.1605902      0.85859753   
    259000  -2223.3735      5466.6705      3243.2969      167.66932      305.71006      174.6432       1.1606286      0.85492289   
    260000  -2209.3496      5356.4984      3147.1488      155.93862      299.54896      174.64483      1.1605587      0.85794367   
    261000  -2344.6232      5395.5178      3050.8946     -35.044971      301.73102      174.66057      1.1606715      0.86851692   
    262000  -2378.5229      5376.2149      2997.692      -328.69424      300.65156      174.72525      1.1609765      0.8683597    
    263000  -2230.5714      5339.4528      3108.8814     -800.49397      298.59573      174.67029      1.1613505      0.86485045   
    264000  -2233.8813      5301.6705      3067.7892     -57.494582      296.48284      174.69375      1.1607351      0.85872415   
    265000  -2368.8961      5260.2157      2891.3196      265.23368      294.16459      174.71931      1.1605635      0.86521731   
    266000  -2229.8196      5316.0985      3086.2788      734.2369       297.28969      174.6621       1.1601359      0.85139376   
    267000  -2243.1177      5368.2454      3125.1277      377.57036      300.20588      174.75499      1.1603948      0.85447342   
    268000  -2217.524       5400.4298      3182.9058      333.50039      302.00572      174.72439      1.160518       0.8522773    
    269000  -2299.001       5239.7493      2940.7482     -19.018041      293.02005      174.68542      1.1605796      0.85846862   
    270000  -2280.3829      5383.6059      3103.223      -187.84815      301.06488      174.71926      1.1608305      0.86529417   
    271000  -2390.4707      5405.3647      3014.894      -561.03265      302.28169      174.73888      1.1611865      0.87695674   
    272000  -2413.1293      5322.6014      2909.4721     -306.14056      297.65335      174.686        1.1609048      0.8784223    
    273000  -2317.239       5379.3268      3062.0878      71.447887      300.82558      174.76315      1.1606625      0.86381972   
    274000  -2297.0746      5366.0315      3068.957       679.0474       300.08208      174.61701      1.160204       0.86367023   
    275000  -2319.0657      5358.1434      3039.0777      708.90856      299.64095      174.74661      1.1601737      0.85935038   
    276000  -2225.6975      5317.4997      3091.8022      334.09613      297.36806      174.67088      1.1604384      0.8584713    
    277000  -2286.8121      5390.2939      3103.4817      245.73743      301.43889      174.72592      1.1604966      0.85488642   
    278000  -2158.6593      5349.7627      3191.1034     -161.72403      299.17228      174.64203      1.1608644      0.85470372   
    279000  -2077.575       5466.8803      3389.3052     -302.47289      305.72179      174.64496      1.1609346      0.84530435   
    280000  -2209.8759      5257.0756      3047.1997     -151.20195      293.98899      174.7573       1.1607772      0.84968035   
    281000  -2234.6513      5268.5907      3033.9394     -79.52359       294.63294      174.7389       1.1607482      0.85857625   
    282000  -2229.9469      5401.5094      3171.5625      119.76859      302.06609      174.74141      1.1606344      0.85242412   
    283000  -2189.401       5397.3234      3207.9224      752.48031      301.832        174.72741      1.1601665      0.85137125   
    284000  -2269.2134      5358.4953      3089.2819      517.50672      299.66063      174.78998      1.1603259      0.85898235   
    285000  -2273.1307      5445.5586      3172.4279      514.62658      304.52943      174.71766      1.1603295      0.85932648   
    286000  -2360.1136      5414.6236      3054.51        254.37031      302.79947      174.71038      1.1605109      0.86547051   
    287000  -2199.0874      5411.1625      3212.0751     -99.517903      302.60591      174.72889      1.1608395      0.86511554   
    288000  -2310.1509      5351.7646      3041.6137     -169.1072       299.28423      174.75265      1.1607933      0.86257804   
    289000  -2381.4289      5276.1979      2894.7689      11.758294      295.05835      174.72632      1.1606717      0.87071171   
    290000  -2299.9686      5356.2019      3056.2333      78.937616      299.53238      174.7886       1.1606592      0.8689762    
    291000  -2244.6467      5405.5269      3160.8801      221.51223      302.29075      174.63449      1.160545       0.86190968   
    292000  -2308.765       5334.9207      3026.1557      342.96921      298.34228      174.69703      1.1604343      0.86820389   
    293000  -2253.5838      5356.176       3102.5921      645.96247      299.53093      174.69594      1.1602925      0.86831128   
    294000  -2190.8874      5351.6526      3160.7652      281.99661      299.27797      174.66952      1.1604651      0.85059381   
    295000  -2164.1158      5321.1335      3157.0176      29.452727      297.57126      174.69339      1.1606659      0.85044507   
    296000  -2305.0365      5313.976       3008.9395     -171.43587      297.171        174.76693      1.1608967      0.86566663   
    297000  -2320.5495      5295.2816      2974.7321     -542.33324      296.12556      174.74279      1.1611114      0.86267027   
    298000  -2145.3711      5354.0693      3208.6981     -238.0649       299.41312      174.65237      1.1609014      0.85241589   
    299000  -2226.1038      5401.0136      3174.9098      186.24039      302.03836      174.62595      1.1605857      0.85691544   
    300000  -2264.4572      5351.8273      3087.37        698.6839       299.28774      174.70614      1.1601311      0.85416734   
    301000  -2194.7204      5391.7672      3197.0468      444.45925      301.52128      174.73841      1.1603935      0.851454     
    302000  -2276.5859      5418.291       3141.7051      366.40946      303.00456      174.69603      1.1604942      0.85386748   
    302731  -2296.6379      5321.0719      3024.434      -372.31151      297.56782      174.73922      1.1609758      0.8543536    
Loop time of 460.497 on 36 procs for 100000 steps with 6000 atoms

Performance: 4.691 ns/day, 5.117 hours/ns, 217.157 timesteps/s, 1.303 Matom-step/s
99.2% CPU use with 36 MPI tasks x no OpenMP threads

MPI task timing breakdown:
Section |  min time  |  avg time  |  max time  |%varavg| %total
---------------------------------------------------------------
Pair    | 50.396     | 61.967     | 70.837     |  71.6 | 13.46
Bond    | 0.66451    | 0.73127    | 0.82121    |   3.6 |  0.16
Kspace  | 296.96     | 306.2      | 318.13     |  32.0 | 66.49
Neigh   | 0.35043    | 0.36189    | 0.3729     |   1.0 |  0.08
Comm    | 27.612     | 29.55      | 31.214     |  17.7 |  6.42
Output  | 0.013246   | 0.013658   | 0.026563   |   1.9 |  0.00
Modify  | 28.399     | 42.424     | 60.046     | 204.0 |  9.21
Other   |            | 19.25      |            |       |  4.18

Nlocal:        166.667 ave         201 max         141 min
Histogram: 2 4 5 5 6 7 3 1 2 1
Nghost:        3449.11 ave        3505 max        3386 min
Histogram: 2 0 5 4 7 6 2 4 3 3
Neighs:        41212.1 ave       53885 max       32965 min
Histogram: 2 5 7 10 2 2 5 1 1 1

Total # of neighbors = 1483636
Ave neighs/atom = 247.27267
Ave special neighs/atom = 2
Neighbor list builds = 266
Dangerous builds = 0
PPPM initialization ...
  using 12-bit tables for long-range coulomb (../kspace.cpp:342)
  G vector (1/distance) = 0.26710732
  grid = 50 50 50
  stencil order = 5
  estimated absolute RMS force accuracy = 0.00042875334
  estimated relative force accuracy = 1.2911779e-06
  using double precision KISS FFT
  3d grid and FFT values/proc = 12500 5000
Generated 1 of 1 mixed pair_coeff terms from arithmetic mixing rule
Setting up Verlet run ...
  Unit style    : real
  Current step  : 302731
  Time step     : 0.5
Per MPI rank memory allocation (min/avg/max) = 7.977 | 8.138 | 8.727 Mbytes
   Step         PotEng         KinEng         TotEng         Press           Temp       c_theta_ave    c_length_ave    v_Density   
    302731  -2296.6383      5321.0719      3024.4337     -372.31224      297.56782      174.73922      1.1609758      0.8543536    
    303000  -2286.9539      5408.2124      3121.2585      857.85947      302.44094      174.66707      1.1600389      0.85901596   
    304000  -2274.611       5224.2391      2949.628       261.06389      292.15268      174.72012      1.1604678      0.85537041   
    305000  -2278.3808      5399.1267      3120.7458     -93.073356      301.93284      174.77246      1.1608691      0.85642603   
    306000  -2301.1315      5332.763       3031.6315     -327.68466      298.22162      174.68546      1.1608991      0.84835939   
    307000  -2215.9953      5285.3249      3069.3296     -27.232199      295.56876      174.72608      1.1606609      0.83706549   
    308000  -2206.7951      5323.4024      3116.6073      570.57719      297.69815      174.62472      1.1602685      0.84626781   
    309000  -2291.2259      5352.4267      3061.2008      194.03902      299.32126      174.80694      1.1604988      0.85502742   
    310000  -2316.3845      5359.2429      3042.8584     -2.222368       299.70244      174.88407      1.1607056      0.85606513   
    311000  -2337.9859      5405.266       3067.2802     -82.520324      302.27617      174.73933      1.1607755      0.87277267   
    312000  -2350.3311      5357.6365      3007.3054     -164.33114      299.6126       174.75634      1.1607485      0.86489506   
    313000  -2178.2057      5403.0385      3224.8328      269.11881      302.1516       174.62891      1.1605252      0.85943291   
    314000  -2261.3319      5455.0392      3193.7074      619.41015      305.05961      174.73981      1.1601774      0.86233574   
    315000  -2365.9975      5297.7943      2931.7968      246.30445      296.26608      174.76765      1.1606492      0.88735871   
    316000  -2342.5633      5303.5614      2960.9981     -50.322983      296.58859      174.70305      1.160729       0.87073206   
    317000  -2283.3168      5373.9519      3090.6351     -545.472        300.525        174.72684      1.1610968      0.86400769   
    318000  -2355.2955      5352.2317      2996.9362      173.03462      299.31036      174.86191      1.1605442      0.86317973   
    319000  -2214.9718      5360.1699      3145.1981      341.97608      299.75428      174.6192       1.1604088      0.85953968   
    320000  -2310.2844      5355.9922      3045.7078      272.5429       299.52065      174.70488      1.1605873      0.87609454   
    321000  -2322.7923      5368.1526      3045.3602     -475.14513      300.20069      174.73994      1.1610246      0.85941242   
    322000  -2242.6027      5420.9858      3178.3831     -237.75334      303.15526      174.71051      1.1608779      0.86317296   
    323000  -2166.203       5345.29        3179.087       279.49967      298.92216      174.677        1.1605383      0.85557107   
    324000  -2082.8978      5398.3601      3315.4623      351.38095      301.88997      174.7072       1.1603325      0.84226465   
    325000  -2052.138       5417.8902      3365.7522      378.20345      302.98214      174.65481      1.1604051      0.83920209   
    326000  -2223.9744      5367.1717      3143.1973     -24.607933      300.14584      174.77967      1.1607959      0.85377579   
    327000  -2265.5664      5417.0183      3151.4518     -543.69789      302.93338      174.6797       1.1611092      0.84940184   
    328000  -2248.401       5325.5437      3077.1427      96.09898       297.8179       174.76795      1.160652       0.85852714   
    329000  -2195.5557      5297.795       3102.2393      671.42184      296.26612      174.69845      1.1602161      0.86049989   
    330000  -2208.3588      5332.0951      3123.7363      296.5676       298.18426      174.79568      1.1604664      0.85865883   
    331000  -2334.2402      5422.9929      3088.7527     -366.55968      303.2675       174.81536      1.1609651      0.86028639   
    332000  -2295.5933      5306.8015      3011.2082     -239.21168      296.76978      174.78102      1.1609719      0.86732691   
    333000  -2228.5713      5295.8944      3067.3231      40.498147      296.15983      174.75648      1.1606584      0.86751145   
    334000  -2190.1018      5370.8465      3180.7448      284.31765      300.35134      174.73264      1.1604076      0.85496248   
    335000  -2274.2817      5388.4082      3114.1265      211.45437      301.33344      174.73679      1.1605417      0.86223321   
    336000  -2289.668       5358.2328      3068.5648      48.880691      299.64595      174.83672      1.1607018      0.86624573   
    337000  -2256.2259      5338.2631      3082.0372     -274.35252      298.52919      174.66092      1.1609092      0.86114559   
    338000  -2231.7877      5378.4229      3146.6352     -151.64684      300.77503      174.68896      1.1606883      0.84846502   
    339000  -2257.9965      5359.5108      3101.5144      247.07928      299.71742      174.72851      1.1604742      0.84874619   
    340000  -2267.9978      5257.2143      2989.2165      639.6567       293.99674      174.76332      1.1601386      0.85109599   
    341000  -2202.4568      5362.8935      3160.4367      198.86713      299.90659      174.70212      1.1605243      0.84369958   
    342000  -2294.0394      5352.5354      3058.4959      77.929624      299.32734      174.77883      1.1606819      0.86230145   
    343000  -2189.1662      5451.5443      3262.3781     -361.18103      304.86417      174.72614      1.1610289      0.85591239   
    344000  -2274.084       5318.1961      3044.1121      155.86121      297.407        174.69985      1.1605644      0.85656593   
    345000  -2299.3957      5436.4493      3137.0537      341.69319      304.02002      174.7788       1.1604974      0.86126027   
    346000  -2276.2431      5414.1         3137.8569      726.16746      302.77019      174.76211      1.1602743      0.87473218   
    347000  -2279.9335      5389.3766      3109.4431     -93.018717      301.38759      174.74728      1.1607588      0.86971628   
    348000  -2269.0441      5362.2011      3093.157      -96.500526      299.86787      174.71313      1.1607435      0.86427059   
    349000  -2372.3448      5413.8955      3041.5508      32.536538      302.75875      174.85637      1.1607241      0.86978046   
    350000  -2204.2517      5374.3445      3170.0927      917.0832       300.54696      174.76712      1.1600506      0.85493682   
    351000  -2184.825       5390.5383      3205.7133      632.0059       301.45256      174.69791      1.160136       0.85003362   
    352000  -2181.86        5344.6201      3162.7601     -9.2582384      298.8847       174.72406      1.1607018      0.85323196   
    353000  -2287.5673      5314.6254      3027.0581     -36.727521      297.20732      174.77159      1.160769       0.86182519   
    354000  -2466.475       5520.1898      3053.7148     -144.59257      308.703        174.9172       1.1608508      0.87232498   
    355000  -2366.8339      5324.0079      2957.1741      273.98736      297.73201      174.86068      1.1604704      0.86482529   
    356000  -2184.2432      5379.0713      3194.8281      616.21691      300.81129      174.81878      1.1601792      0.83971599   
    357000  -2308.2387      5410.5005      3102.2618      175.99477      302.5689       174.84238      1.1606339      0.85240526   
    358000  -2232.9597      5278.423       3045.4633      122.49438      295.18279      174.72352      1.16068        0.84920972   
    359000  -2348.9321      5283.0346      2934.1026     -170.08733      295.44068      174.80106      1.1608454      0.84982929   
    360000  -2227.9976      5390.7944      3162.7968      132.02997      301.46688      174.78679      1.1605485      0.83500001   
    361000  -2283.2146      5305.8838      3022.6692      337.22547      296.71846      174.82615      1.1604046      0.85162088   
    362000  -2112.3418      5365.2949      3252.9531      461.106        300.04088      174.76103      1.1603189      0.84493388   
    363000  -2315.4444      5372.352       3056.9076      83.860288      300.43553      174.7818       1.1606966      0.86284825   
    364000  -2209.4846      5329.2781      3119.7935     -644.96684      298.02673      174.8126       1.1612455      0.84967608   
    365000  -2176.4022      5338.8492      3162.447       4.831617       298.56197      174.77276      1.1607333      0.84724759   
    366000  -2248.9062      5340.9431      3092.037       337.42899      298.67907      174.83997      1.1603951      0.8505695    
    367000  -2291.6091      5378.7613      3087.1522      534.54946      300.79396      174.79202      1.1603096      0.86405822   
    368000  -2310.8154      5476.035       3165.2196      164.12687      306.23375      174.735        1.1606258      0.8679446    
    369000  -2320.9568      5383.1717      3062.2149     -225.74707      301.0406       174.79543      1.160895       0.87349864   
    370000  -2467.2248      5315.0797      2847.8548     -192.19346      297.23272      174.82001      1.1609327      0.89157659   
    371000  -2294.1521      5452.5131      3158.361       185.98281      304.91835      174.75533      1.160597       0.86553627   
    372000  -2222.9338      5266.6422      3043.7083      563.62638      294.52397      174.75617      1.1602485      0.85746042   
    373000  -2260.5027      5354.7095      3094.2068      152.14277      299.44892      174.78844      1.1605986      0.86156171   
    374000  -2307.9664      5366.2653      3058.2989     -541.15529      300.09515      174.78843      1.161141       0.8641       
    375000  -2286.5503      5365.7183      3079.168      -46.646162      300.06456      174.73518      1.1608054      0.86079339   
    376000  -2199.8297      5329.2761      3129.4465      372.93342      298.02662      174.75258      1.1604887      0.84592107   
    377000  -2298.2515      5397.2498      3098.9984      345.99587      301.82788      174.79375      1.1604869      0.86173616   
    378000  -2256.1305      5369.3545      3113.2239      505.60299      300.2679       174.85663      1.1603211      0.84952709   
    379000  -2103.5522      5307.4634      3203.9112     -93.901668      296.8068       174.7738       1.1607264      0.83463431   
    380000  -2263.7865      5351.4935      3087.7071     -411.4858       299.26907      174.90041      1.1609948      0.84170451   
    381000  -2234.5679      5265.746       3031.1781      164.01703      294.47386      174.71202      1.1605264      0.84650799   
    382000  -2369.3733      5394.3357      3024.9624      354.02853      301.66492      174.82901      1.1604383      0.85754375   
    383000  -2249.5832      5395.0772      3145.494       515.86887      301.70638      174.89486      1.1603603      0.85427563   
    384000  -2150.5964      5315.3114      3164.715      -80.52779       297.24568      174.70346      1.1608063      0.8608134    
    385000  -2246.7219      5416.5795      3169.8576     -135.55453      302.90885      174.83345      1.1608038      0.85815675   
    386000  -2177.2316      5293.1965      3115.9649      22.718961      296.00896      174.70035      1.1606274      0.84806086   
    387000  -2332.3445      5283.731       2951.3865      412.85275      295.47962      174.74578      1.1603123      0.85708806   
    388000  -2092.2247      5431.4197      3339.195       703.02365      303.73875      174.76285      1.1600887      0.83565367   
    389000  -2180.5327      5250.3897      3069.857      -33.827592      293.61509      174.77903      1.160703       0.84628522   
    390000  -2184.3247      5293.4983      3109.1736     -285.62586      296.02583      174.66682      1.1609196      0.85039597   
    391000  -2292.0674      5244.7165      2952.6491     -36.517221      293.29783      174.78862      1.1607921      0.85716567   
    392000  -2191.3569      5447.872       3256.5151      411.49929      304.6588       174.72678      1.160393       0.84080523   
    393000  -2196.9097      5402.7673      3205.8576      449.29199      302.13643      174.73436      1.160394       0.85506417   
    394000  -2302.79        5288.9756      2986.1857     -47.817036      295.77291      174.85425      1.1607009      0.85769352   
    395000  -2166.202       5332.1214      3165.9195     -379.03485      298.18574      174.75669      1.1609848      0.84962971   
    396000  -2271.9451      5296.3456      3024.4006      65.868672      296.18507      174.83047      1.1606725      0.85898289   
    397000  -2183.3231      5374.7589      3191.4358      341.94727      300.57013      174.72829      1.1604976      0.85103958   
    398000  -2151.869       5290.4678      3138.5988      990.73925      295.85636      174.74618      1.1598722      0.84406594   
    399000  -2336.5799      5368.6209      3032.041       160.53196      300.22688      174.82845      1.1605928      0.85458125   
    400000  -2251.59        5302.1669      3050.5769     -228.97736      296.51061      174.80109      1.1608262      0.85554718   
    401000  -2350.684       5412.0488      3061.3648     -219.85816      302.65548      174.82355      1.1608422      0.86756419   
    402000  -2232.8111      5336.9971      3104.186       188.94696      298.4584       174.75127      1.1605352      0.86522463   
    402731  -2358.5627      5344.7395      2986.1768     -167.23792      298.89137      174.81251      1.1608511      0.87340163   
Loop time of 459.587 on 36 procs for 100000 steps with 6000 atoms

Performance: 9.400 ns/day, 2.553 hours/ns, 217.587 timesteps/s, 1.306 Matom-step/s
99.2% CPU use with 36 MPI tasks x no OpenMP threads

MPI task timing breakdown:
Section |  min time  |  avg time  |  max time  |%varavg| %total
---------------------------------------------------------------
Pair    | 53.474     | 62.213     | 70.231     |  56.4 | 13.54
Bond    | 0.6964     | 0.73133    | 0.79533    |   2.7 |  0.16
Kspace  | 295.39     | 304.45     | 314.36     |  27.5 | 66.24
Neigh   | 0.71898    | 0.74001    | 0.76464    |   1.4 |  0.16
Comm    | 27.759     | 29.752     | 31.56      |  19.3 |  6.47
Output  | 0.013043   | 0.013379   | 0.023687   |   1.5 |  0.00
Modify  | 28.212     | 42.434     | 60.089     | 204.0 |  9.23
Other   |            | 19.25      |            |       |  4.19

Nlocal:        166.667 ave         189 max         146 min
Histogram: 3 4 3 2 3 9 3 6 2 1
Nghost:        3484.33 ave        3547 max        3424 min
Histogram: 4 3 2 2 7 4 6 3 2 3
Neighs:        42203.9 ave       50016 max       35346 min
Histogram: 2 6 3 3 4 7 6 1 0 4

Total # of neighbors = 1519339
Ave neighs/atom = 253.22317
Ave special neighs/atom = 2
Neighbor list builds = 535
Dangerous builds = 0
PPPM initialization ...
  using 12-bit tables for long-range coulomb (../kspace.cpp:342)
  G vector (1/distance) = 0.26751342
  grid = 50 50 50
  stencil order = 5
  estimated absolute RMS force accuracy = 0.00041975811
  estimated relative force accuracy = 1.2640891e-06
  using double precision KISS FFT
  3d grid and FFT values/proc = 12500 5000
Generated 1 of 1 mixed pair_coeff terms from arithmetic mixing rule
Setting up Verlet run ...
  Unit style    : real
  Current step  : 0
  Time step     : 0.5
Per MPI rank memory allocation (min/avg/max) = 7.978 | 8.138 | 8.727 Mbytes
   Step         PotEng         KinEng         TotEng         Press           Temp       c_theta_ave    c_length_ave    v_Density   
         0  -2358.5624      5344.7395      2986.1771     -167.23764      298.89137      174.81251      1.1608511      0.87340163   
      1000  -2367.3004      5436.668       3069.3676     -146.28744      304.03225      174.79948      1.1608766      0.87123186   
      2000  -2265.1205      5348.4405      3083.32        543.55608      299.09834      174.75303      1.1602616      0.85960897   
      3000  -2273.4241      5410.541       3137.1169     -259.22784      302.57116      174.7597       1.1609772      0.86109271   
      4000  -2212.3585      5484.4653      3272.1068      630.91554      306.7052       174.72339      1.1602343      0.85157086   
      5000  -2116.1325      5462.276       3346.1435     -86.639962      305.46431      174.67773      1.1607703      0.83663203   
      6000  -2155.091       5470.1099      3315.0189     -184.44635      305.9024       174.75768      1.1608875      0.84479339   
      7000  -2182.6846      5338.857       3156.1724      397.62702      298.56241      174.775        1.1604012      0.84694858   
      8000  -2190.8727      5382.9966      3192.1239     -282.53255      301.0308       174.68854      1.1609454      0.83975313   
      9000  -2133.5932      5439.108       3305.5148      456.30154      304.1687       174.72028      1.1603863      0.83234856   
     10000  -2054.8506      5388.0705      3333.22        543.23553      301.31455      174.7807       1.1603419      0.82870368   
     11000  -2087.5252      5325.1691      3237.644       308.43133      297.79695      174.7548       1.1604269      0.82534308   
     12000  -2025.715       5304.5589      3278.8439      251.53714      296.64437      174.62607      1.1604213      0.82547518   
     13000  -2117.6814      5408.9141      3291.2327     -458.08821      302.48018      174.73841      1.1610769      0.83234142   
     14000  -2269.4407      5513.7836      3244.3429      132.11992      308.34475      174.81951      1.1606646      0.84891202   
     15000  -2333.5119      5475.0294      3141.5174      426.06687      306.17751      174.82468      1.160412       0.859745     
     16000  -2266.8484      5361.193       3094.3446      7.6868073      299.8115       174.82783      1.1606629      0.8612286    
     17000  -2232.7008      5401.5699      3168.8691      40.292743      302.06947      174.77043      1.1606964      0.86022381   
     18000  -2167.7804      5396.8784      3229.098      -238.2984       301.80711      174.72245      1.1609487      0.85132584   
     19000  -2202.9254      5489.5518      3286.6264      116.43864      306.98964      174.67931      1.1606181      0.8564579    
     20000  -2240.3197      5389.0305      3148.7108      327.14653      301.36824      174.86328      1.1604838      0.85721148   
     21000  -2161.8606      5257.2643      3095.4037     -28.281575      293.99954      174.76203      1.1606564      0.84889526   
     22000  -2293.1745      5377.4545      3084.28        74.73326       300.72088      174.84315      1.1606512      0.84788395   
     23000  -2208.5276      5296.638       3088.1104      324.01876      296.20142      174.7717       1.1604339      0.85181935   
     24000  -2217.7992      5296.3281      3078.5289      116.46488      296.18409      174.74787      1.1606159      0.8552043    
     25000  -2233.9936      5411.542       3177.5483      204.42601      302.62714      174.74311      1.1605514      0.85387217   
     26000  -2190.3019      5352.1961      3161.8941     -17.58074       299.30836      174.71841      1.16075        0.85153753   
     27000  -2185.4405      5398.3193      3212.8788      33.696555      301.88769      174.78266      1.160675       0.83982366   
     28000  -2119.1446      5406.7517      3287.607       77.528567      302.35925      174.72348      1.1606525      0.83538556   
     29000  -2089.6488      5316.0084      3226.3596      8.3358229      297.28466      174.72703      1.1606967      0.83328133   
     30000  -2160.0238      5256.7479      3096.7241     -184.747        293.97066      174.79133      1.1608222      0.83025045   
     31000  -2256.6137      5350.0307      3093.417       354.81206      299.18727      174.83489      1.1604521      0.84326563   
     32000  -2125.77        5442.4778      3316.7078     -51.34722       304.35714      174.72447      1.160793       0.84810672   
     33000  -2169.9087      5455.6588      3285.7502     -149.40491      305.09426      174.77955      1.1608766      0.84811538   
     34000  -2191.9948      5378.4762      3186.4814      371.50156      300.77802      174.81004      1.1604606      0.84259158   
     35000  -2057.2291      5278.5333      3221.3042      262.34492      295.18896      174.70763      1.1604137      0.82274424   
     36000  -2031.494       5311.5283      3280.0343     -93.950686      297.03412      174.73568      1.160729       0.82363831   
     37000  -2151.4969      5387.1829      3235.686      -302.74046      301.26492      174.68097      1.1609648      0.83985029   
     38000  -2188.1506      5378.9076      3190.757       105.28887      300.80214      174.76872      1.1606567      0.84035441   
     39000  -2104.1861      5378.9742      3274.7881      198.70065      300.80586      174.76076      1.1605462      0.83488328   
     40000  -2072.0953      5334.3918      3262.2965      48.378422      298.3127       174.6891       1.1606386      0.83179207   
     41000  -2135.6405      5284.0216      3148.3811      229.89515      295.49587      174.82019      1.1605569      0.84277428   
     42000  -2280.875       5420.5198      3139.6448      354.37438      303.1292       174.79065      1.1603918      0.85049439   
     43000  -2232.6719      5421.3512      3188.6792      323.86674      303.17569      174.72516      1.1604923      0.85592602   
     44000  -2131.3521      5392.1003      3260.7481      124.54939      301.53991      174.69833      1.160574       0.84222485   
     45000  -2137.3912      5376.5755      3239.1843      255.23968      300.67172      174.74707      1.1605261      0.84179749   
     46000  -2207.663       5363.5355      3155.8725      466.7413       299.94249      174.7916       1.1603705      0.8413685    
     47000  -2166.6475      5339.8035      3173.156       214.32527      298.61534      174.76377      1.1605588      0.83960186   
     48000  -2255.1396      5317.7771      3062.6375      692.87978      297.38357      174.78226      1.1601775      0.85066164   
     49000  -2267.5094      5358.5934      3091.084       181.9069       299.66612      174.77168      1.1604655      0.84779728   
     50000  -2190.0723      5258.4204      3068.3481     -212.98259      294.06419      174.76026      1.1608439      0.84565461   
     51000  -2181.4605      5370.6654      3189.2049      592.02368      300.34121      174.78628      1.1602127      0.84001329   
     52000  -2216.0442      5386.6038      3170.5597     -287.88567      301.23253      174.75365      1.1609993      0.84415634   
     53000  -2136.508       5283.2738      3146.7658      552.04418      295.45405      174.64825      1.1602369      0.84374583   
     54000  -2180.7224      5390.6511      3209.9287     -150.8656       301.45887      174.84942      1.1607942      0.84022223   
     55000  -2070.1866      5416.4111      3346.2246     -19.247508      302.89943      174.75475      1.1607698      0.83756355   
     56000  -2218.7601      5489.4063      3270.6462      294.91861      306.98151      174.83415      1.1605025      0.84551058   
     57000  -2224.4393      5509.3308      3284.8914     -167.04818      308.09573      174.83392      1.1608633      0.8526637    
     58000  -2158.7079      5409.7552      3251.0473      523.57764      302.52722      174.8014       1.1602931      0.84781538   
     59000  -2170.2786      5358.4777      3188.1991      208.08858      299.65965      174.74225      1.1605594      0.8416359    
     60000  -2211.5364      5401.1731      3189.6367     -371.78012      302.04728      174.85678      1.1609882      0.83744851   
     61000  -2109.9171      5326.8968      3216.9797      499.70503      297.89356      174.67746      1.1603008      0.83940264   
     62000  -2122.4154      5421.8084      3299.393       144.37127      303.20126      174.74568      1.1605746      0.83690452   
     63000  -2124.8374      5398.759       3273.9216      136.70886      301.91228      174.71053      1.1605734      0.83451824   
     64000  -2185.5649      5348.8979      3163.333       357.96028      299.12392      174.78606      1.1604755      0.84566754   
     65000  -2162.6281      5258.4141      3095.786      -500.89658      294.06384      174.7123       1.1610316      0.84060869   
     66000  -2220.4745      5370.7181      3150.2435      171.96246      300.34416      174.78191      1.1605807      0.84590539   
     67000  -2169.431       5257.4552      3088.0241      429.97277      294.01021      174.83319      1.160328       0.83532148   
     68000  -2223.0782      5372.6531      3149.575       142.12453      300.45237      174.90513      1.1605569      0.84195298   
     69000  -2212.3634      5469.7832      3257.4198      128.30223      305.88413      174.71086      1.1606395      0.85885778   
     70000  -2240.5173      5373.8468      3133.3295      209.42582      300.51912      174.77718      1.1605667      0.85082843   
     71000  -2202.7477      5390.4399      3187.6921     -159.74455      301.44705      174.78257      1.16081        0.8439604    
     72000  -2306.5494      5374.8883      3068.3388      677.79003      300.57737      174.81659      1.1602213      0.85474443   
     73000  -2215.1757      5339.623       3124.4473     -147.36563      298.60525      174.80547      1.1607941      0.85026782   
     74000  -2183.0514      5383.7465      3200.6951      155.63508      301.07274      174.70777      1.1606095      0.85124159   
     75000  -2287.2582      5422.1889      3134.9306     -15.323892      303.22254      174.81869      1.1606945      0.85697381   
     76000  -2272.1522      5397.6957      3125.5435      631.63714      301.85282      174.74604      1.1602521      0.85313827   
     77000  -2224.3554      5422.6143      3198.2588     -339.5336       303.24633      174.7832       1.1609884      0.84081459   
     78000  -2171.4357      5319.2446      3147.809       148.47251      297.46563      174.70101      1.1605506      0.84137631   
     79000  -2120.7893      5312.1892      3191.3999      263.5343       297.07108      174.68473      1.1605081      0.83979619   
     80000  -2164.2532      5308.7107      3144.4575     -356.52543      296.87655      174.84082      1.1609729      0.83869296   
     81000  -2162.1616      5309.4039      3147.2422      57.134712      296.91531      174.72782      1.1606527      0.83519904   
     82000  -2100.4379      5308.5009      3208.0631      104.76996      296.86482      174.69711      1.1606973      0.82935259   
     83000  -2090.8554      5388.1795      3297.3241     -74.492067      301.32065      174.71446      1.1607718      0.82847738   
     84000  -2198.2744      5322.3244      3124.0501      310.29018      297.63787      174.77507      1.1604814      0.83608646   
     85000  -2161.3542      5222.3859      3061.0317      278.11128      292.04905      174.69287      1.1604247      0.83998678   
     86000  -2236.9532      5435.9883      3199.0351     -70.177209      303.99424      174.87165      1.1608339      0.84780493   
     87000  -2192.4684      5425.1028      3232.6344      387.37785      303.38549      174.74119      1.1603979      0.84621673   
     88000  -2286.6404      5278.74        2992.0996      198.22423      295.20051      174.77781      1.1605236      0.84980371   
     89000  -2311.8332      5243.512       2931.6788      363.46424      293.23047      174.80453      1.160387       0.86629213   
     90000  -2377.8452      5324.4195      2946.5743      10.134314      297.75503      174.78176      1.1606972      0.87159657   
     91000  -2456.1209      5331.0158      2874.8949      204.24581      298.12391      174.78873      1.1605324      0.8709843    
     92000  -2351.9718      5278.6235      2926.6517      222.42281      295.194        174.85287      1.1604429      0.85729602   
     93000  -2165.0782      5371.2433      3206.1651     -358.20238      300.37353      174.73755      1.1610225      0.84202115   
     94000  -2185.6546      5361.4919      3175.8373      227.60812      299.82821      174.75585      1.1605567      0.84322467   
     95000  -2143.7071      5387.5027      3243.7957     -220.50687      301.2828       174.6668       1.160851       0.84440721   
     96000  -2221.3159      5333.2772      3111.9613      22.758876      298.25037      174.76232      1.1606809      0.84082595   
     97000  -2317.194       5373.1352      3055.9412      999.37219      300.47933      174.81387      1.1600407      0.84804378   
     98000  -2313.6128      5391.4099      3077.7971     -357.86223      301.5013       174.78373      1.1610347      0.85234898   
     99000  -2218.5943      5342.4085      3123.8142      335.24276      298.76101      174.82549      1.1604643      0.85031902   
    100000  -2315.1403      5439.6748      3124.5345     -248.97759      304.2004       174.79375      1.1609267      0.85708941   
    101000  -2210.0029      5339.2695      3129.2667     -11.174053      298.58548      174.80528      1.1607957      0.85709821   
    102000  -2213.3761      5388.6723      3175.2962      383.75968      301.34821      174.67219      1.1603896      0.84805687   
[...]
  11423000   172786.19      301.61246     -98.210142      5393.3977     -2317.9111      3075.4866      0.84589502     0              0              0              29.593756      29.593756      197.29171    
  11424000   172786.19      301.29328      547.25689      5387.6902     -2312.0664      3075.6237      0.84589502     0              0              0              29.593756      29.593756      197.29171    
  11425000   172786.19      299.63494      614.7742       5358.036      -2281.9255      3076.1104      0.84589502     0              0              0              29.593756      29.593756      197.29171    
  11426000   172786.19      296.09772     -42.635543      5294.7837     -2218.6285      3076.1552      0.84589502     0              0              0              29.593756      29.593756      197.29171    
  11427000   172786.19      300.93777      250.02849      5381.333      -2305.6507      3075.6824      0.84589502     0              0              0              29.593756      29.593756      197.29171    
  11428000   172786.19      297.61968      578.49164      5321.9992     -2246.3114      3075.6878      0.84589502     0              0              0              29.593756      29.593756      197.29171    
  11429000   172786.19      298.66976      212.96159      5340.7766     -2264.6824      3076.0943      0.84589502     0              0              0              29.593756      29.593756      197.29171    
  11430000   172786.19      294.95286     -34.18793       5274.3114     -2198.2371      3076.0744      0.84589502     0              0              0              29.593756      29.593756      197.29171    
  11431000   172786.19      299.86032      224.42198      5362.0661     -2286.5027      3075.5634      0.84589502     0              0              0              29.593756      29.593756      197.29171    
  11432000   172786.19      305.49656      569.49727      5462.8527     -2387.6387      3075.214       0.84589502     0              0              0              29.593756      29.593756      197.29171    
  11433000   172786.19      297.72863      72.181128      5323.9475     -2248.2212      3075.7263      0.84589502     0              0              0              29.593756      29.593756      197.29171    
  11434000   172786.19      301.70921     -58.931218      5395.1278     -2319.2769      3075.8509      0.84589502     0              0              0              29.593756      29.593756      197.29171    
  11435000   172786.19      297.62301     -116.63518      5322.0588     -2246.311       3075.7478      0.84589502     0              0              0              29.593756      29.593756      197.29171    
  11436000   172786.19      301.17326      312.38045      5385.5439     -2310.1401      3075.4039      0.84589502     0              0              0              29.593756      29.593756      197.29171    
  11437000   172786.19      300.61407      182.50755      5375.5446     -2300.3492      3075.1954      0.84589502     0              0              0              29.593756      29.593756      197.29171    
  11438000   172786.19      299.61148      193.2669       5357.6164     -2281.9357      3075.6807      0.84589502     0              0              0              29.593756      29.593756      197.29171    
  11439000   172786.19      298.11952      14.304382      5330.9373     -2255.4244      3075.513       0.84589502     0              0              0              29.593756      29.593756      197.29171    
  11440000   172786.19      299.33471      189.93085      5352.6672     -2277.5425      3075.1246      0.84589502     0              0              0              29.593756      29.593756      197.29171    
  11441000   172786.19      299.22202     -243.3599       5350.6521     -2275.3399      3075.3121      0.84589502     0              0              0              29.593756      29.593756      197.29171    
  11442000   172786.19      300.94967      364.07666      5381.5458     -2306.0054      3075.5404      0.84589502     0              0              0              29.593756      29.593756      197.29171    
  11443000   172786.19      302.48839      1050.8306      5409.061      -2333.5505      3075.5104      0.84589502     0              0              0              29.593756      29.593756      197.29171    
  11444000   172786.19      300.42611      66.963727      5372.1835     -2296.7128      3075.4707      0.84589502     0              0              0              29.593756      29.593756      197.29171    
  11445000   172786.19      300.68521     -1236.2231      5376.8167     -2301.091       3075.7257      0.84589502     0              0              0              29.593756      29.593756      197.29171    
  11446000   172786.19      299.12591      307.26187      5348.9335     -2273.2056      3075.728       0.84589502     0              0              0              29.593756      29.593756      197.29171    
  11447000   172786.19      300.36893      709.54193      5371.161      -2295.676       3075.485       0.84589502     0              0              0              29.593756      29.593756      197.29171    
  11448000   172786.19      299.42901      59.656333      5354.3535     -2278.7167      3075.6369      0.84589502     0              0              0              29.593756      29.593756      197.29171    
  11449000   172786.19      297.04803      367.69666      5311.7772     -2235.9456      3075.8315      0.84589502     0              0              0              29.593756      29.593756      197.29171    
  11450000   172786.19      299.18644     -3.339657       5350.0158     -2274.3027      3075.7131      0.84589502     0              0              0              29.593756      29.593756      197.29171    
  11451000   172786.19      300.25672     -225.1641       5369.1545     -2293.7486      3075.406       0.84589502     0              0              0              29.593756      29.593756      197.29171    
  11452000   172786.19      300.30517     -391.13581      5370.0208     -2294.3947      3075.626       0.84589502     0              0              0              29.593756      29.593756      197.29171    
  11453000   172786.19      296.20354      167.78585      5296.676      -2220.638       3076.038       0.84589502     0              0              0              29.593756      29.593756      197.29171    
  11454000   172786.19      301.22268      9.4452006      5386.4276     -2310.7239      3075.7038      0.84589502     0              0              0              29.593756      29.593756      197.29171    
  11455000   172786.19      300.2485      -282.01581      5369.0074     -2293.3433      3075.6641      0.84589502     0              0              0              29.593756      29.593756      197.29171    
  11456000   172786.19      301.31338     -241.04641      5388.0496     -2312.2265      3075.8231      0.84589502     0              0              0              29.593756      29.593756      197.29171    
  11457000   172786.19      294.78683      100.19718      5271.3426     -2195.2869      3076.0557      0.84589502     0              0              0              29.593756      29.593756      197.29171    
  11458000   172786.19      300.23267      704.68281      5368.7244     -2293.0995      3075.6249      0.84589502     0              0              0              29.593756      29.593756      197.29171    
  11459000   172786.19      299.96333      571.79288      5363.9081     -2288.3097      3075.5984      0.84589502     0              0              0              29.593756      29.593756      197.29171    
  11460000   172786.19      298.43207     -1.8759042      5336.5263     -2260.6609      3075.8654      0.84589502     0              0              0              29.593756      29.593756      197.29171    
  11461000   172786.19      300.32689      428.50301      5370.4092     -2294.4902      3075.9189      0.84589502     0              0              0              29.593756      29.593756      197.29171    
  11462000   172786.19      299.28068      347.83224      5351.701      -2276.0477      3075.6533      0.84589502     0              0              0              29.593756      29.593756      197.29171    
  11463000   172786.19      298.67732     -69.194442      5340.9118     -2265.1705      3075.7413      0.84589502     0              0              0              29.593756      29.593756      197.29171    
  11464000   172786.19      297.86902      154.29914      5326.4579     -2250.572       3075.8859      0.84589502     0              0              0              29.593756      29.593756      197.29171    
  11465000   172786.19      296.509        37.925029      5302.1381     -2225.9583      3076.1798      0.84589502     0              0              0              29.593756      29.593756      197.29171    
  11466000   172786.19      297.88767     -22.410186      5326.7914     -2250.9555      3075.8359      0.84589502     0              0              0              29.593756      29.593756      197.29171    
  11467000   172786.19      300.56395     -219.17328      5374.6483     -2299.0618      3075.5865      0.84589502     0              0              0              29.593756      29.593756      197.29171    
  11468000   172786.19      300.31265      190.52994      5370.1545     -2294.2899      3075.8646      0.84589502     0              0              0              29.593756      29.593756      197.29171    
  11469000   172786.19      298.76658     -391.45047      5342.5079     -2266.538       3075.97        0.84589502     0              0              0              29.593756      29.593756      197.29171    
  11470000   172786.19      295.91297     -123.23743      5291.4801     -2215.605       3075.8751      0.84589502     0              0              0              29.593756      29.593756      197.29171    
  11471000   172786.19      301.41105      296.4387       5389.796      -2314.2568      3075.5392      0.84589502     0              0              0              29.593756      29.593756      197.29171    
  11472000   172786.19      301.20343      337.55628      5386.0834     -2310.4098      3075.6736      0.84589502     0              0              0              29.593756      29.593756      197.29171    
  11473000   172786.19      298.82733      404.67313      5343.5944     -2267.6956      3075.8988      0.84589502     0              0              0              29.593756      29.593756      197.29171    
  11474000   172786.19      298.87157      298.97615      5344.3854     -2268.5516      3075.8339      0.84589502     0              0              0              29.593756      29.593756      197.29171    
  11475000   172786.19      295.5348      -102.26682      5284.7177     -2208.8401      3075.8776      0.84589502     0              0              0              29.593756      29.593756      197.29171    
  11476000   172786.19      294.30154      881.70764      5262.6646     -2186.6892      3075.9755      0.84589502     0              0              0              29.593756      29.593756      197.29171    
  11477000   172786.19      297.67957      496.74976      5323.0701     -2246.9547      3076.1154      0.84589502     0              0              0              29.593756      29.593756      197.29171    
  11478000   172786.19      298.22594      44.253466      5332.8403     -2256.9723      3075.8681      0.84589502     0              0              0              29.593756      29.593756      197.29171    
  11479000   172786.19      301.51401      587.46122      5391.6372     -2315.9124      3075.7248      0.84589502     0              0              0              29.593756      29.593756      197.29171    
  11480000   172786.19      299.50937      96.24594       5355.7904     -2279.877       3075.9133      0.84589502     0              0              0              29.593756      29.593756      197.29171    
  11481000   172786.19      295.47106     -27.729199      5283.5779     -2207.3914      3076.1865      0.84589502     0              0              0              29.593756      29.593756      197.29171    
  11482000   172786.19      296.0809      -85.350153      5294.483      -2218.5183      3075.9647      0.84589502     0              0              0              29.593756      29.593756      197.29171    
  11483000   172786.19      295.7512       112.13964      5288.5873     -2212.8821      3075.7052      0.84589502     0              0              0              29.593756      29.593756      197.29171    
  11484000   172786.19      301.38258      875.26339      5389.287      -2313.4292      3075.8578      0.84589502     0              0              0              29.593756      29.593756      197.29171    
  11485000   172786.19      297.02732      495.05039      5311.4067     -2235.4806      3075.9261      0.84589502     0              0              0              29.593756      29.593756      197.29171    
  11486000   172786.19      300.89096      284.64302      5380.4959     -2304.5547      3075.9412      0.84589502     0              0              0              29.593756      29.593756      197.29171    
  11487000   172786.19      297.29147      13.438426      5316.1303     -2240.3615      3075.7688      0.84589502     0              0              0              29.593756      29.593756      197.29171    
  11488000   172786.19      297.77252      68.966879      5324.7324     -2248.875       3075.8574      0.84589502     0              0              0              29.593756      29.593756      197.29171    
  11489000   172786.19      297.52024      331.19474      5320.2212     -2244.4067      3075.8144      0.84589502     0              0              0              29.593756      29.593756      197.29171    
  11490000   172786.19      300.39715      553.62497      5371.6656     -2295.6662      3075.9994      0.84589502     0              0              0              29.593756      29.593756      197.29171    
  11491000   172786.19      295.80499     -355.77351      5289.5492     -2213.3931      3076.1561      0.84589502     0              0              0              29.593756      29.593756      197.29171    
  11492000   172786.19      297.95389     -64.462519      5327.9755     -2252.0513      3075.9242      0.84589502     0              0              0              29.593756      29.593756      197.29171    
  11493000   172786.19      296.20523      513.31743      5296.7063     -2220.9642      3075.7421      0.84589502     0              0              0              29.593756      29.593756      197.29171    
  11494000   172786.19      298.92895      30.486588      5345.4114     -2269.435       3075.9764      0.84589502     0              0              0              29.593756      29.593756      197.29171    
  11495000   172786.19      298.39124      364.02439      5335.7962     -2259.7131      3076.0831      0.84589502     0              0              0              29.593756      29.593756      197.29171    
  11496000   172786.19      298.66604      596.34346      5340.7101     -2264.4926      3076.2176      0.84589502     0              0              0              29.593756      29.593756      197.29171    
  11497000   172786.19      299.56197      294.35848      5356.7311     -2280.9362      3075.7949      0.84589502     0              0              0              29.593756      29.593756      197.29171    
  11498000   172786.19      298.10798     -261.314        5330.731      -2254.8883      3075.8426      0.84589502     0              0              0              29.593756      29.593756      197.29171    
  11499000   172786.19      300.09959      66.217175      5366.3448     -2290.4581      3075.8867      0.84589502     0              0              0              29.593756      29.593756      197.29171    
  11500000   172786.19      301.69497     -69.284447      5394.8731     -2318.902       3075.9711      0.84589502     0              0              0              29.593756      29.593756      197.29171    
  11501000   172786.19      298.66705     -413.64575      5340.7282     -2264.7847      3075.9435      0.84589502     0              0              0              29.593756      29.593756      197.29171    
  11502000   172786.19      301.67149      409.49148      5394.4532     -2318.6096      3075.8436      0.84589502     0              0              0              29.593756      29.593756      197.29171    
  11503000   172786.19      298.16824     -267.14935      5331.8086     -2255.8288      3075.9798      0.84589502     0              0              0              29.593756      29.593756      197.29171    
  11504000   172786.19      299.33624     -391.43425      5352.6945     -2276.4739      3076.2206      0.84589502     0              0              0              29.593756      29.593756      197.29171    
  11505000   172786.19      296.91039      119.68599      5309.3158     -2233.018       3076.2978      0.84589502     0              0              0              29.593756      29.593756      197.29171    
  11506000   172786.19      295.86575      363.03266      5290.6356     -2214.6306      3076.005       0.84589502     0              0              0              29.593756      29.593756      197.29171    
  11507000   172786.19      296.93047      527.83471      5309.6749     -2233.7766      3075.8983      0.84589502     0              0              0              29.593756      29.593756      197.29171    
  11508000   172786.19      298.04182      421.75185      5329.548      -2253.4523      3076.0957      0.84589502     0              0              0              29.593756      29.593756      197.29171    
  11509000   172786.19      295.77234      568.00629      5288.9654     -2213.0023      3075.9631      0.84589502     0              0              0              29.593756      29.593756      197.29171    
  11510000   172786.19      298.20043      94.007794      5332.3842     -2256.8105      3075.5738      0.84589502     0              0              0              29.593756      29.593756      197.29171    
Loop time of 2449.02 on 36 procs for 500000 steps with 6000 atoms

Performance: 8.820 ns/day, 2.721 hours/ns, 204.163 timesteps/s, 1.225 Matom-step/s
99.2% CPU use with 36 MPI tasks x no OpenMP threads

MPI task timing breakdown:
Section |  min time  |  avg time  |  max time  |%varavg| %total
---------------------------------------------------------------
Pair    | 292.45     | 308.59     | 328.27     |  59.8 | 12.60
Bond    | 2.7003     | 2.834      | 3.0018     |   5.3 |  0.12
Kspace  | 1789.2     | 1811.6     | 1833       |  25.8 | 73.97
Neigh   | 3.432      | 3.5121     | 3.5945     |   2.7 |  0.14
Comm    | 286.67     | 299.51     | 312.36     |  43.6 | 12.23
Output  | 0.037667   | 0.041494   | 0.047058   |   1.2 |  0.00
Modify  | 0.95194    | 1.0187     | 1.131      |   4.3 |  0.04
Other   |            | 21.95      |            |       |  0.90

Nlocal:        166.667 ave         190 max         135 min
Histogram: 1 0 2 6 2 5 8 7 4 1
Nghost:        4778.81 ave        4898 max        4659 min
Histogram: 3 4 2 6 2 5 3 5 4 2
Neighs:        40953.6 ave       45114 max       32427 min
Histogram: 1 0 2 2 3 5 4 6 7 6

Total # of neighbors = 1474329
Ave neighs/atom = 245.7215
Ave special neighs/atom = 2
Neighbor list builds = 2500
Dangerous builds = 0
System init for write_data ...
PPPM initialization ...
  using 12-bit tables for long-range coulomb (../kspace.cpp:342)
  G vector (1/distance) = 0.26835055
  grid = 32 32 135
  stencil order = 5
  estimated absolute RMS force accuracy = 0.00038486703
  estimated relative force accuracy = 1.1590156e-06
  using double precision KISS FFT
  3d grid and FFT values/proc = 16796 4096
Generated 1 of 1 mixed pair_coeff terms from arithmetic mixing rule
