units		    real
atom_style	    full
boundary        p p p
pair_style	    lj/cut/coul/long 12.0
pair_modify     mix arithmetic tail yes   # Geometric for EPM2
kspace_style    pppm 1e-6
bond_style      harmonic
angle_style     harmonic

read_data       ./data.lmp           # read the positions --------------comment it out for restarting
Reading data file ...
  orthogonal box = (0 0 0) to (54.078336 54.078336 54.078336)
  3 by 3 by 4 MPI processor grid
  reading atoms ...
  6000 atoms
  scanning bonds ...
  1 = max bonds/atom
  scanning angles ...
  1 = max angles/atom
  reading bonds ...
  4000 bonds
  reading angles ...
  2000 angles
Finding 1-2 1-3 1-4 neighbors ...
  special bond factors lj:    0        0        0       
  special bond factors coul:  0        0        0       
     2 = max # of 1-2 neighbors
     1 = max # of 1-3 neighbors
     1 = max # of 1-4 neighbors
     2 = max # of special neighbors
  special bonds CPU = 0.002 seconds
  read_data CPU = 0.557 seconds
#read_restart   2.restart

#----------------------------------------------------------------------------#
# FORCEFIELD - TraPPE Flexible model for CO2 (DOI- 10.1021/acs.jced.9b00006)
#----------------------------------------------------------------------------#

pair_coeff      1   1  0.1569891239   3.05             # [O]=C=O
pair_coeff      2   2  0.0536545107   2.8              # O=[C]=O

bond_coeff      1   1028.266  1.16

angle_coeff     1   55.96  180

mass            1   15.9994                       # O
mass            2   12.0107                       # C

set type        1   charge     -0.3500            # O
Setting atom values ...
  4000 settings made for charge
set type        2   charge     +0.7000            # C
Setting atom values ...
  2000 settings made for charge

#------------------------ VARIABLES------------------------------------------#

variable  TEMP_INDEX       equal 300  # in K
variable  PRESS_INDEX      equal 200  # in bar
variable  RandomSeed       equal 5000  # RANDOM SEED
variable  nz_layers        equal 20
variable  nx_layers        equal 3
variable  timestep         equal 0.5

variable  simulationTemp   equal ${TEMP_INDEX}
variable  simulationTemp   equal 300
variable  pressure         equal 0.987*${PRESS_INDEX}
variable  pressure         equal 0.987*200

variable  Ninptpre         equal 100000
variable  Ninpt            equal 1000000
variable  Npnpt            equal 2000000

variable  equi_run         equal 1000000           #500000
variable  npt_run          equal 10000000           #5000000
variable  NBR              equal ${npt_run}/100   # Block averaging for density (NPT)
variable  NBR              equal 10000000/100   

variable  Density          equal density
variable  Volume           equal vol

variable  dumpfreq         equal 1000
variable  thermofreq       equal 1000
variable  printfreq        equal 1000
variable  restartfreq      equal 1000000

variable  NVT_init         equal 500000
variable  NVE_reshape      equal 10000
variable  NVT_run_2        equal 500000
variable  NVE_cuboid       equal 500000

variable  thermo_num       equal 1000

#---------------------------- GROUPS/NEIGHBOUR - LIST -----------------------------------------------------------------------#

group           oxy  type 1
4000 atoms in group oxy
group           carb type 2
2000 atoms in group carb

neighbor	    3.0 bin
neigh_modify    every 1 delay 0 check yes
run_style       verlet

#---------------------------- CONGUGATE-GRADIENT MINIMIZATION --------------------------------------------------------#

#minimize energytolerance forcetolerance max_iterations_of_minimizer max_number_of_force_or_energy_evaluations
minimize        1e-6 1e-8 100000 10000000
PPPM initialization ...
  using 12-bit tables for long-range coulomb (../kspace.cpp:342)
  G vector (1/distance) = 0.2685318
  grid = 50 50 50
  stencil order = 5
  estimated absolute RMS force accuracy = 0.00039779035
  estimated relative force accuracy = 1.1979338e-06
  using double precision KISS FFT
  3d grid and FFT values/proc = 12500 5000
Generated 1 of 1 mixed pair_coeff terms from arithmetic mixing rule
Neighbor list info ...
  update: every = 1 steps, delay = 0 steps, check = yes
  max neighbors/atom: 2000, page size: 100000
  master list distance cutoff = 15
  ghost atom cutoff = 15
  binsize = 7.5, bins = 8 8 8
  1 neighbor lists, perpetual/occasional/extra = 1 0 0
  (1) pair lj/cut/coul/long, perpetual
      attributes: half, newton on
      pair build: half/bin/newton
      stencil: half/bin/3d
      bin: standard
Per MPI rank memory allocation (min/avg/max) = 9.013 | 9.098 | 9.255 Mbytes
   Step          Temp          E_pair         E_mol          TotEng         Press     
         0   0             -1749.2664      6.7077778e-05 -1749.2663      6898.5058    
      3055   0             -9871.5365      18.590317     -9852.9462     -305.80068    
Loop time of 34.9992 on 36 procs for 3055 steps with 6000 atoms

99.2% CPU use with 36 MPI tasks x no OpenMP threads

Minimization stats:
  Stopping criterion = energy tolerance
  Energy initial, next-to-last, final = 
     -1749.26628821482  -9852.93658569556  -9852.94617550917
  Force two-norm initial, final = 491.70788 8.3747351
  Force max component initial, final = 16.85498 0.77541919
  Final line search alpha, max atom move = 0.021412623 0.016603758
  Iterations, force evaluations = 3055 6072

MPI task timing breakdown:
Section |  min time  |  avg time  |  max time  |%varavg| %total
---------------------------------------------------------------
Pair    | 1.8582     | 6.6139     | 14.663     | 104.5 | 18.90
Bond    | 0.026497   | 0.038684   | 0.057775   |   3.7 |  0.11
Kspace  | 17.244     | 25.57      | 30.391     |  54.8 | 73.06
Neigh   | 0.087685   | 0.090656   | 0.092827   |   0.5 |  0.26
Comm    | 2.0427     | 2.2733     | 2.6453     |   9.1 |  6.50
Output  | 0          | 0          | 0          |   0.0 |  0.00
Modify  | 0          | 0          | 0          |   0.0 |  0.00
Other   |            | 0.4128     |            |       |  1.18

Nlocal:        166.667 ave         287 max          86 min
Histogram: 3 4 4 10 4 5 1 3 0 2
Nghost:        3805.61 ave        4569 max        3312 min
Histogram: 4 6 5 4 4 6 2 2 1 2
Neighs:        52464.8 ave      128402 max        9722 min
Histogram: 3 7 5 9 5 4 1 0 0 2

Total # of neighbors = 1888733
Ave neighs/atom = 314.78883
Ave special neighs/atom = 2
Neighbor list builds = 35
Dangerous builds = 0

#---------------------------- NPT simulations  ---------------------------------------------------------------------#

fix runnpt all npt temp ${simulationTemp} ${simulationTemp} 10 iso ${pressure} ${pressure} 100
fix runnpt all npt temp 300 ${simulationTemp} 10 iso ${pressure} ${pressure} 100
fix runnpt all npt temp 300 300 10 iso ${pressure} ${pressure} 100
fix runnpt all npt temp 300 300 10 iso 197.4 ${pressure} 100
fix runnpt all npt temp 300 300 10 iso 197.4 197.4 100

compute theta       all     angle/local   theta
compute length      all     bond/local    dist

compute theta_ave   all     reduce        ave       c_theta
compute length_ave  all     reduce        ave       c_length

thermo_style custom step pe ke etotal press temp c_theta_ave c_length_ave v_Density
thermo_modify flush yes
thermo ${thermo_num}
thermo 1000

velocity	    all create ${simulationTemp} ${RandomSeed} mom yes rot yes dist gaussian
velocity	    all create 300 ${RandomSeed} mom yes rot yes dist gaussian
velocity	    all create 300 5000 mom yes rot yes dist gaussian

#-----------------------
# Run (Pre-Initialization)
#-----------------------

timestep    0.1
run         ${Ninptpre}
run         100000
PPPM initialization ...
  using 12-bit tables for long-range coulomb (../kspace.cpp:342)
  G vector (1/distance) = 0.2685318
  grid = 50 50 50
  stencil order = 5
  estimated absolute RMS force accuracy = 0.00039779035
  estimated relative force accuracy = 1.1979338e-06
  using double precision KISS FFT
  3d grid and FFT values/proc = 12500 5000
Generated 1 of 1 mixed pair_coeff terms from arithmetic mixing rule
Per MPI rank memory allocation (min/avg/max) = 8.041 | 8.164 | 8.94 Mbytes
   Step         PotEng         KinEng         TotEng         Press           Temp       c_theta_ave    c_length_ave    v_Density   
      3055  -9852.9462      5364.5638     -4488.3823      1244.7905      300            179.42011      1.1608407      0.9241778    
      4000  -5832.2799      5617.3162     -214.96373      935.91928      314.13455      176.44801      1.1604476      0.79791725   
      5000  -4390.3323      5514.3783      1124.046      -249.85164      308.378        176.58051      1.1611748      0.73907525   
      6000  -3264.8174      4932.3414      1667.524      -450.73572      275.82903      175.89241      1.1610832      0.70643094   
      7000  -3460.4656      5452.1661      1991.7004      445.82291      304.89894      175.0898       1.1605059      0.68906265   
      8000  -3588.1926      5870.857       2282.6644      493.33037      328.3132       174.98063      1.1605368      0.67721394   
      9000  -3542.9292      5954.1674      2411.2382      432.06656      332.97212      175.07875      1.1606471      0.67538302   
     10000  -3217.1777      5755.8211      2538.6434      421.36101      321.88009      175.02074      1.1605963      0.67222994   
     11000  -2471.0741      4999.0475      2527.9734      5.785958       279.5594       174.95011      1.1606896      0.67323417   
     12000  -2112.5814      4705.7383      2593.1569     -124.90108      263.15681      174.95462      1.1606472      0.67215393   
     13000  -2313.1352      4943.5196      2630.3844      50.202288      276.45414      174.93182      1.1606785      0.67764229   
     14000  -2600.4251      5326.4789      2726.0539      98.368193      297.8702       174.96578      1.1606814      0.6730177    
     15000  -3001.0096      5775.5469      2774.5372      384.33124      322.98321      174.92457      1.1606696      0.67749807   
     16000  -3128.2105      5921.2221      2793.0116      539.46908      331.12974      174.84116      1.1605175      0.6755205    
     17000  -2881.6725      5675.9464      2794.2738      275.76183      317.4133       174.91315      1.1607007      0.67773267   
     18000  -2352.7008      5247.3099      2894.6091      140.45958      293.44286      174.83254      1.1605901      0.66979707   
     19000  -1978.7752      4889.9338      2911.1586      388.22256      273.45748      174.8345       1.1602912      0.6797328    
     20000  -1952.9375      4857.9437      2905.0062     -843.29456      271.66852      174.84601      1.1614497      0.68172383   
     21000  -2363.9834      5257.142       2893.1586      459.0879       293.9927       174.8186       1.1603251      0.68641915   
     22000  -2730.8408      5639.124       2908.2832      501.54014      315.3541       174.8238       1.1604437      0.68986154   
     23000  -2932.4495      5836.8194      2904.3699      192.97109      326.40973      174.86437      1.1608514      0.6933934    
     24000  -2814.9339      5687.335       2872.4011      469.76018      318.05018      174.83075      1.1604626      0.69747339   
     25000  -2496.4059      5297.8432      2801.4373      193.91076      296.26881      174.82309      1.1606565      0.70577193   
     26000  -2112.1466      4969.1956      2857.049      -101.79033      277.89001      174.79005      1.1607659      0.70321181   
     27000  -1972.1498      4950.4083      2978.2585      181.08197      276.83937      174.73663      1.1604286      0.69822362   
     28000  -2153.3407      5192.3456      3039.0049      2.4411405      290.36912      174.81848      1.1607727      0.70644924   
     29000  -2479.8834      5528.3302      3048.4468     -41.638441      309.15823      174.76982      1.1608491      0.70606828   
     30000  -2763.6066      5772.0265      3008.4199      1049.1603      322.78634      174.79984      1.1600197      0.71831613   
     31000  -2695.7484      5706.2321      3010.4837     -38.903093      319.10696      174.83975      1.1609261      0.71851646   
     32000  -2492.7691      5450.7189      2957.9498      109.60558      304.81801      174.87943      1.1607223      0.73104146   
     33000  -2177.9218      5140.3409      2962.4191      274.56954      287.46089      174.86832      1.1604474      0.73271846   
     34000  -2006.1126      5002.6141      2996.5015     -247.6633       279.75886      174.83443      1.1608233      0.72878649   
     35000  -2161.7365      5145.654       2983.9176      134.48721      287.75801      174.76271      1.1606073      0.73962984   
     36000  -2465.6897      5419.5727      2953.883       432.83734      303.07623      174.7319       1.1604518      0.7466409    
     37000  -2739.3361      5617.5108      2878.1747      63.140628      314.14543      174.77059      1.1608556      0.75227629   
     38000  -2734.182       5667.1028      2932.9208      648.32919      316.91874      174.74161      1.1603089      0.75376214   
     39000  -2531.844       5437.0942      2905.2502      498.17823      304.05608      174.79461      1.1604601      0.76366512   
     40000  -2202.1763      5166.2899      2964.1136     -508.2377       288.91202      174.72929      1.1611454      0.76556343   
     41000  -2030.2722      5021.2678      2990.9956      496.4272       280.80202      174.74217      1.1602162      0.77095971   
     42000  -2139.0824      5075.37        2936.2875      3.6466839      283.82755      174.81654      1.1606489      0.77506342   
     43000  -2460.628       5385.9658      2925.3378     -25.533473      301.19685      174.83832      1.1608358      0.78443176   
     44000  -2705.2387      5640.7744      2935.5357      614.23836      315.4464       174.80643      1.1603675      0.78717137   
     45000  -2753.7161      5687.541       2933.8249      193.40273      318.0617       174.84512      1.1607637      0.78871796   
     46000  -2597.1681      5512.3218      2915.1537      90.193867      308.263        174.80766      1.1607769      0.78895585   
     47000  -2338.8405      5328.3594      2989.5188      744.9836       297.97535      174.7176       1.1601885      0.8015445    
     48000  -2116.1774      5056.6362      2940.4588     -476.82529      282.7799       174.74049      1.1609661      0.79316002   
     49000  -2164.2769      5015.1935      2850.9166      29.103538      280.46233      174.73912      1.1606768      0.80729037   
     50000  -2446.9608      5252.2446      2805.2838      373.44475      293.71882      174.84828      1.1603845      0.81154374   
     51000  -2759.3797      5645.2808      2885.9011      23.477347      315.6984       174.88546      1.1608275      0.82198485   
     52000  -2793.0202      5712.449       2919.4288      402.02891      319.45462      174.85165      1.1606058      0.82671049   
     53000  -2685.0824      5550.9787      2865.8963      615.16758      310.42479      174.81641      1.1603948      0.82726596   
     54000  -2429.618       5305.9851      2876.3672     -490.05552      296.72413      174.83033      1.1611711      0.82729165   
     55000  -2193.843       5093.0001      2899.1571      486.67598      284.81347      174.77927      1.1603236      0.83282779   
     56000  -2278.0796      5099.9853      2821.9057      213.17535      285.2041       174.81653      1.1604732      0.8350987    
     57000  -2440.4605      5277.6667      2837.2063     -232.72201      295.14049      174.78968      1.160923       0.84102029   
     58000  -2532.9765      5501.6019      2968.6255      503.86318      307.66352      174.71904      1.1603777      0.83836085   
     59000  -2727.3036      5629.9578      2902.6542      368.52945      314.8415       174.7646       1.1606056      0.84644394   
     60000  -2716.1714      5597.9621      2881.7906      68.234899      313.05222      174.77235      1.1607847      0.84749366   
     61000  -2547.136       5359.4021      2812.2661      1101.4798      299.71134      174.84053      1.1599352      0.85578919   
     62000  -2341.0871      5183.1191      2842.0321     -286.12495      289.85315      174.85291      1.1609174      0.85314107   
     63000  -2220.7378      5073.9101      2853.1722     -222.6493       283.7459       174.81449      1.1607977      0.85133525   
     64000  -2277.9467      5178.3919      2900.4452      491.90295      289.58879      174.79971      1.1603089      0.8534753    
     65000  -2527.8139      5443.5807      2915.7668      60.764079      304.41882      174.78048      1.160851       0.86142696   
     66000  -2730.3332      5531.1697      2800.8365      239.19422      309.31702      174.84929      1.1605925      0.85642347   
     67000  -2727.1688      5624.899       2897.7302      445.2862       314.5586       174.8324       1.1605859      0.86786654   
     68000  -2663.1249      5463.9893      2800.8644      139.74989      305.56012      174.79474      1.1606482      0.86518675   
     69000  -2475.4194      5299.841       2824.4216      128.65649      296.38054      174.88487      1.1606016      0.87891741   
     70000  -2291.431       5104.7147      2813.2837      55.16383       285.46858      174.8345       1.1606485      0.88383925   
     71000  -2350.1063      5210.7638      2860.6576     -71.56424       291.39911      174.78087      1.1606766      0.87498394   
     72000  -2487.7139      5389.1742      2901.4603      440.04184      301.37627      174.76675      1.160428       0.87703744   
     73000  -2620.5972      5577.1064      2956.5092      311.20316      311.88592      174.81119      1.1606849      0.89003799   
     74000  -2810.6959      5669.4791      2858.7831      56.569462      317.05163      174.86312      1.1607278      0.88828239   
     75000  -2816.0482      5474.1116      2658.0634      493.12241      306.12619      174.89862      1.1604817      0.90629999   
     76000  -2626.5162      5195.1124      2568.5962      77.400876      290.52385      174.85869      1.1606764      0.90597469   
     77000  -2593.7442      5107.1217      2513.3775      103.83651      285.60318      174.84114      1.1606128      0.90977764   
     78000  -2535.464       5152.7262      2617.2622      208.37072      288.1535       174.82249      1.1605011      0.90298172   
     79000  -2730.6619      5327.2888      2596.6269     -27.500699      297.91549      174.88246      1.1607819      0.91147035   
     80000  -2951.1295      5531.6369      2580.5074      178.25561      309.34315      174.92515      1.1606856      0.9101184    
     81000  -2933.9756      5626.5518      2692.5762      756.81         314.65103      174.95976      1.1603281      0.91025247   
     82000  -2703.3042      5451.731       2748.4268     -379.66         304.87461      174.85445      1.1610325      0.89697036   
     83000  -2532.3247      5322.6099      2790.2852      323.0579       297.65383      174.8532       1.1604713      0.8982222    
     84000  -2389.64        5247.899       2858.2589      744.46196      293.4758       174.77886      1.1601347      0.90374367   
     85000  -2403.5253      5102.3123      2698.787      -1064.502       285.33423      174.82371      1.1614447      0.90473312   
     86000  -2468.7756      5248.498       2779.7223      564.44563      293.5093       174.78912      1.1603211      0.90232992   
     87000  -2609.4879      5416.111       2806.6232      420.15106      302.88265      174.80358      1.1604651      0.89859591   
     88000  -2683.6699      5553.6265      2869.9566     -95.35204       310.57286      174.77446      1.1609184      0.89676746   
     89000  -2681.0119      5531.0978      2850.0859      640.95552      309.313        174.87022      1.1603639      0.90035025   
     90000  -2608.3396      5363.0051      2754.6655      211.71606      299.91283      174.7584       1.1606556      0.91119098   
     91000  -2520.438       5247.8101      2727.3721     -327.56268      293.47084      174.86107      1.1609339      0.90558576   
     92000  -2346.5922      5269.0545      2922.4623      916.0087       294.65888      174.79224      1.1600512      0.89949672   
     93000  -2426.4538      5274.9275      2848.4737     -282.60429      294.98731      174.86643      1.1608957      0.89545075   
     94000  -2652.3984      5444.7277      2792.3293     -12.698344      304.48297      174.79385      1.1607323      0.90110207   
     95000  -2782.7141      5502.8783      2720.1643      691.3491       307.7349       174.78819      1.1602954      0.91049493   
     96000  -2735.096       5505.2541      2770.158      -2.6889827      307.86775      174.78916      1.160832       0.90972252   
     97000  -2582.0154      5508.9574      2926.942       199.91896      308.07486      174.76999      1.1606738      0.90390943   
     98000  -2478.1849      5373.3764      2895.1914      911.83803      300.49282      174.79509      1.160065       0.89756616   
     99000  -2352.834       5217.6359      2864.8019     -903.21532      291.78342      174.82872      1.1613455      0.89118522   
    100000  -2347.2146      5248.8269      2901.6122      387.44195      293.52769      174.72292      1.1604283      0.89270737   
    101000  -2503.9487      5298.9204      2794.9717      571.87967      296.32905      174.75093      1.1603175      0.88982964   
    102000  -2685.6298      5431.2182      2745.5885     -155.56112      303.72748      174.79926      1.1609271      0.89210105   
    103000  -2688.7621      5530.7284      2841.9663      562.79418      309.29234      174.82586      1.1604452      0.88941321   
    103055  -2569.8401      5436.2177      2866.3776      269.44205      304.00707      174.86723      1.1606081      0.88798735   
Loop time of 499.827 on 36 procs for 100000 steps with 6000 atoms

Performance: 1.729 ns/day, 13.884 hours/ns, 200.069 timesteps/s, 1.200 Matom-step/s
99.2% CPU use with 36 MPI tasks x no OpenMP threads

MPI task timing breakdown:
Section |  min time  |  avg time  |  max time  |%varavg| %total
---------------------------------------------------------------
Pair    | 32.784     | 61.565     | 106.49     | 235.2 | 12.32
Bond    | 0.50255    | 0.72321    | 0.94122    |  12.3 |  0.14
Kspace  | 290.78     | 339.55     | 370.16     | 106.5 | 67.93
Neigh   | 0.22866    | 0.23794    | 0.24368    |   0.9 |  0.05
Comm    | 32.383     | 34.996     | 39.963     |  28.3 |  7.00
Output  | 0.015128   | 0.016575   | 0.065779   |   6.5 |  0.00
Modify  | 30.128     | 43.681     | 61.483     | 201.8 |  8.74
Other   |            | 19.06      |            |       |  3.81

Nlocal:        166.667 ave         195 max         138 min
Histogram: 1 2 4 4 7 7 4 4 0 3
Nghost:        3560.25 ave        3639 max        3476 min
Histogram: 2 2 3 4 5 4 7 6 2 1
Neighs:        43231.9 ave       54209 max       33278 min
Histogram: 1 5 2 4 8 7 4 1 2 2

Total # of neighbors = 1556347
Ave neighs/atom = 259.39117
Ave special neighs/atom = 2
Neighbor list builds = 123
Dangerous builds = 0

timestep    0.2
run         ${Ninptpre}
run         100000
PPPM initialization ...
  using 12-bit tables for long-range coulomb (../kspace.cpp:342)
  G vector (1/distance) = 0.26781521
  grid = 50 50 50
  stencil order = 5
  estimated absolute RMS force accuracy = 0.00041316053
  estimated relative force accuracy = 1.2442207e-06
  using double precision KISS FFT
  3d grid and FFT values/proc = 12500 5000
Generated 1 of 1 mixed pair_coeff terms from arithmetic mixing rule
Per MPI rank memory allocation (min/avg/max) = 8.041 | 8.179 | 8.941 Mbytes
   Step         PotEng         KinEng         TotEng         Press           Temp       c_theta_ave    c_length_ave    v_Density   
    103055  -2569.8406      5436.2177      2866.3771      269.44201      304.00707      174.86723      1.1606081      0.88798735   
    104000  -2295.2743      5137.7672      2842.4929      102.48924      287.31695      174.79736      1.160599       0.8859997    
    105000  -2457.8148      5398.5205      2940.7057      475.24765      301.89894      174.7491       1.160412       0.88496011   
    106000  -2551.0055      5459.7823      2908.7768     -65.894981      305.32486      174.77768      1.1608329      0.89213584   
    107000  -2443.7941      5300.619       2856.8249     -213.02077      296.42404      174.73502      1.1609358      0.90739477   
    108000  -2526.5138      5370.5306      2844.0168      384.21413      300.33368      174.80974      1.1604466      0.90592865   
    109000  -2596.3119      5411.3348      2815.0229      347.08879      302.61555      174.76762      1.1605764      0.90336872   
    110000  -2637.1412      5351.8934      2714.7522     -65.132262      299.29144      174.89558      1.160799       0.90763703   
    111000  -2539.3426      5281.7616      2742.4191      317.58797      295.36949      174.82866      1.1604308      0.91267918   
    112000  -2696.6064      5264.3958      2567.7894      799.32462      294.39835      174.88536      1.1601808      0.92438753   
    113000  -2672.2118      5511.7471      2839.5352     -7.6696832      308.23086      174.81077      1.1608133      0.91468509   
    114000  -2571.1984      5415.331       2844.1326      78.454585      302.83903      174.81269      1.1607549      0.91585071   
    115000  -2444.1933      5251.4826      2807.2893      169.26052      293.67621      174.88616      1.1606199      0.91390585   
    116000  -2679.5624      5492.1705      2812.6081      298.2121       307.13609      174.82605      1.1605427      0.90659665   
    117000  -2633.9408      5369.5482      2735.6075     -38.132964      300.27874      174.8181       1.160766       0.90460716   
    118000  -2458.5359      5231.8118      2773.2758      330.68213      292.57617      174.88381      1.1604506      0.90792559   
    119000  -2503.8436      5392.0066      2888.163       715.7197       301.53467      174.81853      1.1602036      0.8977482    
    120000  -2663.8101      5466.6341      2802.8239     -471.38437      305.70803      174.7804       1.1611609      0.91254236   
    121000  -2518.8304      5398.9164      2880.0859     -52.442593      301.92108      174.89919      1.1607476      0.90626642   
    122000  -2484.7336      5207.3552      2722.6216      363.69815      291.20849      174.89052      1.160435       0.90033155   
    123000  -2547.2746      5399.2138      2851.9392      163.78464      301.93772      174.78556      1.160618       0.90065336   
    124000  -2562.9442      5484.4774      2921.5331     -302.684        306.70587      174.90528      1.1609276      0.89308451   
    125000  -2475.6545      5205.4675      2729.813       454.46583      291.10293      174.86839      1.1604021      0.90698549   
    126000  -2566.2161      5261.6367      2695.4206      323.31131      294.24405      174.78321      1.1605244      0.91167003   
    127000  -2711.9757      5449.2064      2737.2307      88.409464      304.73343      174.80421      1.1607126      0.90940796   
    128000  -2516.473       5352.5309      2836.0579      107.3483       299.32709      174.86076      1.160668       0.90703991   
    129000  -2464.9672      5256.309       2791.3418      763.82215      293.94611      174.7563       1.1600904      0.90878106   
    130000  -2464.4655      5411.4578      2946.9923     -171.40781      302.62243      174.70355      1.1608365      0.90265755   
    131000  -2695.0293      5438.0546      2743.0253     -148.0644       304.10979      174.89479      1.1608687      0.90853228   
    132000  -2411.5555      5397.1308      2985.5753      407.14501      301.82123      174.73839      1.1605048      0.91379337   
    133000  -2410.7123      5274.7777      2864.0654      283.47678      294.97893      174.76637      1.1605547      0.90318229   
    134000  -2543.4808      5456.6795      2913.1987     -11.039336      305.15134      174.85003      1.1607321      0.898966     
    135000  -2429.5026      5346.3145      2916.8119      308.50959      298.97945      174.72856      1.1605635      0.90212334   
    136000  -2422.751       5230.9433      2808.1923      574.86447      292.5276       174.77381      1.1604012      0.91436687   
    137000  -2571.0806      5340.4972      2769.4165      34.980932      298.65413      174.79706      1.1607113      0.90796166   
    138000  -2600.0047      5368.222       2768.2173     -177.23106      300.20457      174.77757      1.1608805      0.90627921   
    139000  -2569.8775      5305.575       2735.6975      911.49126      296.70119      174.85212      1.1601022      0.91628204   
    140000  -2484.584       5194.9982      2710.4142      150.76316      290.51746      174.85422      1.1605644      0.90314796   
    141000  -2629.7165      5442.369       2812.6525     -168.04049      304.35106      174.75076      1.160923       0.90756033   
    142000  -2575.9761      5484.1626      2908.1865      525.8402       306.68827      174.80808      1.1604485      0.90746055   
    143000  -2544.6241      5263.8684      2719.2443      609.75276      294.36885      174.80543      1.1603042      0.91905348   
    144000  -2602.2338      5394.3572      2792.1233     -100.09416      301.66612      174.7963       1.1608738      0.9169594    
    145000  -2611.692       5474.6868      2862.9948     -230.611        306.15835      174.84185      1.1610001      0.91779492   
    146000  -2627.0408      5424.6129      2797.572       826.08266      303.35809      174.83445      1.1602418      0.92488072   
    147000  -2610.4346      5361.6548      2751.2202      124.25584      299.83732      174.7917       1.1606389      0.9184496    
    148000  -2605.4461      5407.9329      2802.4869     -506.1448       302.42531      174.73809      1.1611238      0.91023199   
    149000  -2650.715       5340.3978      2689.6828      683.37612      298.64857      174.78297      1.1602499      0.91225671   
    150000  -2582.5936      5310.3419      2727.7483      491.35183      296.96777      174.81351      1.1603597      0.91479812   
    151000  -2561.142       5361.8304      2800.6884     -148.55514      299.84714      174.80708      1.1608918      0.91211306   
    152000  -2639.6593      5438.204       2798.5447      189.60266      304.11814      174.81922      1.1606476      0.90771139   
    153000  -2521.4565      5322.1631      2800.7066      392.77319      297.62884      174.84597      1.1604572      0.90836997   
    154000  -2447.8697      5317.5106      2869.6409      162.85218      297.36866      174.65748      1.1605568      0.90245023   
    155000  -2677.8352      5307.4654      2629.6303     -277.5221       296.80691      174.77576      1.1609994      0.92111708   
    156000  -2676.5037      5239.4976      2562.9939      357.12092      293.00598      174.82821      1.1604521      0.91435537   
    157000  -2422.5918      5279.1861      2856.5944      391.22927      295.22546      174.7094       1.1604221      0.90403447   
    158000  -2517.6887      5464.787       2947.0983     -391.53695      305.60473      174.74898      1.1611425      0.91559962   
    159000  -2596.0519      5434.6262      2838.5744      162.8294       303.91807      174.78699      1.1606894      0.90381486   
    160000  -2424.5806      5364.9275      2940.3469      405.85593      300.02034      174.75796      1.1604277      0.89276664   
    161000  -2520.1822      5307.8848      2787.7027     -22.440986      296.83037      174.80828      1.1607241      0.89903367   
    162000  -2488.1794      5400.656       2912.4766     -504.51485      302.01836      174.79168      1.1611421      0.89445483   
    163000  -2551.2157      5477.3946      2926.1789      541.33329      306.30978      174.84599      1.1603834      0.91117018   
    164000  -2421.0599      5312.2972      2891.2373      366.56166      297.07712      174.78335      1.1604469      0.90241719   
    165000  -2498.8037      5294.4204      2795.6167     -637.04267      296.0774       174.79153      1.1611184      0.89832196   
    166000  -2516.288       5431.0162      2914.7282      225.29409      303.71619      174.86877      1.1605752      0.89682963   
    167000  -2499.8457      5343.0675      2843.2218      695.89931      298.79787      174.82197      1.1602525      0.90513172   
    168000  -2533.0934      5314.4996      2781.4062     -82.115983      297.20028      174.8029       1.1607836      0.90749596   
    169000  -2683.5206      5351.7451      2668.2245     -442.73119      299.28314      174.84923      1.1611389      0.91938401   
    170000  -2648.3699      5395.4403      2747.0704      618.64767      301.72669      174.90097      1.1602895      0.90804914   
    171000  -2678.0233      5320.4501      2642.4268      336.53354      297.53305      174.86105      1.160605       0.92564954   
    172000  -2547.7153      5305.7766      2758.0612      30.662933      296.71247      174.74172      1.1607104      0.91559654   
    173000  -2561.39        5487.5674      2926.1774      261.52065      306.87867      174.77207      1.1606327      0.91188477   
    174000  -2588.3768      5364.3112      2775.9344      467.85451      299.98587      174.87119      1.1604575      0.90665668   
    175000  -2534.6359      5316.601       2781.9651     -159.20436      297.3178       174.8158       1.1609053      0.90799785   
    176000  -2465.5424      5284.5792      2819.0368     -214.39837      295.52705      174.72336      1.160921       0.89690081   
    177000  -2608.2966      5337.8569      2729.5603      974.92683      298.50648      174.77486      1.1600271      0.90579274   
    178000  -2578.3299      5473.3184      2894.9885      178.36341      306.08183      174.8256       1.1606501      0.9120929    
    179000  -2637.1276      5321.785       2684.6574     -156.72129      297.6077       174.85029      1.1608553      0.91603047   
    180000  -2549.0387      5364.5094      2815.4707      603.53803      299.99696      174.756        1.1603438      0.90660503   
    181000  -2493.2207      5337.5133      2844.2925      661.20889      298.48726      174.7672       1.1603095      0.90329176   
    182000  -2496.7647      5314.4436      2817.6789     -119.90421      297.19715      174.82392      1.1608144      0.90007699   
    183000  -2641.534       5295.5665      2654.0325      15.50166       296.14149      174.80722      1.1607431      0.91210368   
    184000  -2679.7744      5480.2011      2800.4267      1312.7225      306.46673      174.82308      1.1598605      0.91873591   
    185000  -2503.7705      5469.7599      2965.9893      116.23397      305.88283      174.75486      1.1607117      0.90764787   
    186000  -2475.2249      5356.1209      2880.8959     -202.32633      299.52785      174.71507      1.1608704      0.90120125   
    187000  -2627.0057      5455.9581      2828.9524      387.32543      305.111        174.76331      1.1605301      0.90983179   
    188000  -2455.4944      5429.1565      2973.6621      273.44004      303.61219      174.71792      1.1605929      0.90277907   
    189000  -2488.8677      5283.149       2794.2813     -218.83134      295.44707      174.68557      1.1608225      0.9023346    
    190000  -2538.1242      5401.8894      2863.7652      268.43895      302.08734      174.76704      1.160614       0.90767234   
    191000  -2559.5311      5361.1639      2801.6329      1051.7941      299.80987      174.78464      1.159924       0.89992312   
    192000  -2523.773       5309.8164      2786.0434     -41.711637      296.93838      174.72404      1.1607925      0.90739259   
    193000  -2615.338       5293.386       2678.0481     -33.270838      296.01956      174.77934      1.1608139      0.92469769   
    194000  -2560.3645      5340.3361      2779.9716      455.02918      298.64513      174.78666      1.1604328      0.91144673   
    195000  -2488.9857      5366.0864      2877.1008      409.11801      300.08515      174.69815      1.1604795      0.90843514   
    196000  -2616.0151      5321.7833      2705.7682     -628.58231      297.6076       174.8095       1.1612309      0.92112493   
    197000  -2570.897       5337.9146      2767.0176      338.8848       298.50971      174.84094      1.160533       0.9065842    
    198000  -2487.9908      5364.001       2876.0102      522.77173      299.96852      174.75442      1.1603417      0.89627768   
    199000  -2520.7486      5360.8467      2840.0981      45.959164      299.79213      174.76071      1.1607579      0.90650707   
    200000  -2505.2121      5230.0856      2724.8735     -59.906585      292.47963      174.81652      1.1607412      0.90476124   
    201000  -2547.8123      5306.2321      2758.4198      811.3824       296.73794      174.79518      1.1600617      0.89939348   
    202000  -2538.3062      5433.907       2895.6007      272.30704      303.87784      174.68556      1.1606645      0.90917755   
    203000  -2527.9626      5305.221       2777.2584     -12.945479      296.6814       174.77158      1.1607874      0.91706698   
    203055  -2573.5911      5286.273       2712.6819      291.85002      295.62178      174.82743      1.1605644      0.91601248   
Loop time of 485.175 on 36 procs for 100000 steps with 6000 atoms

Performance: 3.562 ns/day, 6.739 hours/ns, 206.111 timesteps/s, 1.237 Matom-step/s
99.2% CPU use with 36 MPI tasks x no OpenMP threads

MPI task timing breakdown:
Section |  min time  |  avg time  |  max time  |%varavg| %total
---------------------------------------------------------------
Pair    | 56.369     | 65.047     | 73.937     |  54.0 | 13.41
Bond    | 0.65913    | 0.72405    | 0.77053    |   3.0 |  0.15
Kspace  | 306.84     | 317.29     | 327.23     |  26.7 | 65.40
Neigh   | 0.29063    | 0.30045    | 0.30916    |   0.9 |  0.06
Comm    | 36.464     | 39.113     | 42.448     |  19.1 |  8.06
Output  | 0.014439   | 0.015776   | 0.061272   |   6.1 |  0.00
Modify  | 29.076     | 43.368     | 61.274     | 202.8 |  8.94
Other   |            | 19.31      |            |       |  3.98

Nlocal:        166.667 ave         192 max         145 min
Histogram: 2 0 6 9 8 2 2 4 2 1
Nghost:        3609.53 ave        3662 max        3521 min
Histogram: 1 0 1 3 5 4 8 6 5 3
Neighs:        44201.4 ave       53899 max       37096 min
Histogram: 3 2 5 8 8 3 2 3 0 2

Total # of neighbors = 1591250
Ave neighs/atom = 265.20833
Ave special neighs/atom = 2
Neighbor list builds = 212
Dangerous builds = 0

timestep    0.25
run         ${Ninptpre}
run         100000
PPPM initialization ...
  using 12-bit tables for long-range coulomb (../kspace.cpp:342)
  G vector (1/distance) = 0.26837399
  grid = 50 50 50
  stencil order = 5
  estimated absolute RMS force accuracy = 0.00040113985
  estimated relative force accuracy = 1.2080208e-06
  using double precision KISS FFT
  3d grid and FFT values/proc = 12500 5000
Generated 1 of 1 mixed pair_coeff terms from arithmetic mixing rule
Per MPI rank memory allocation (min/avg/max) = 8.041 | 8.179 | 8.941 Mbytes
   Step         PotEng         KinEng         TotEng         Press           Temp       c_theta_ave    c_length_ave    v_Density   
    203055  -2573.5909      5286.273       2712.682       291.84945      295.62178      174.82743      1.1605644      0.91601248   
    204000  -2484.6733      5380.1284      2895.4551      533.24074      300.87041      174.7528       1.16045        0.91468473   
    205000  -2502.9035      5390.3691      2887.4656      912.04651      301.4431       174.75827      1.1601006      0.91320908   
    206000  -2483.6592      5381.6892      2898.03        514.89937      300.95769      174.73948      1.1603468      0.90565543   
    207000  -2562.9848      5396.7672      2833.7824      403.51957      301.80089      174.81237      1.1604737      0.90826389   
    208000  -2529.2154      5267.3939      2738.1785      146.91788      294.56601      174.74335      1.1606099      0.91309327   
    209000  -2606.6532      5360.3187      2753.6655     -53.83898       299.7626       174.80828      1.1607757      0.91469287   
    210000  -2596.7248      5281.8906      2685.1658     -180.48842      295.37671      174.705        1.1608362      0.91616839   
    211000  -2565.4297      5298.5273      2733.0976     -454.90833      296.30707      174.73658      1.1610311      0.90678639   
    212000  -2572.1592      5254.2537      2682.0945      100.36719      293.83118      174.71318      1.1607234      0.91063491   
    213000  -2490.2624      5257.2609      2766.9984      241.18395      293.99934      174.74389      1.160561       0.90581136   
    214000  -2474.785       5346.8025      2872.0174      690.38601      299.00674      174.67683      1.1602751      0.90319872   
    215000  -2431.1048      5402.7188      2971.6139      868.82074      302.13372      174.78786      1.1600777      0.89705408   
    216000  -2483.3656      5387.3554      2903.9898      478.93847      301.27456      174.69599      1.1604865      0.90744989   
    217000  -2452.9909      5353.3434      2900.3525      319.99365      299.37252      174.66563      1.1605902      0.90064017   
    218000  -2533.6968      5402.716       2869.0192      59.695718      302.13357      174.74646      1.1606778      0.90305503   
    219000  -2633.8702      5418.2751      2784.4048      77.301658      303.00367      174.73657      1.1607405      0.92450559   
    220000  -2576.9739      5289.186       2712.2121      167.54069      295.78468      174.75993      1.1606232      0.91703816   
    221000  -2578.2485      5277.3571      2699.1086      34.992457      295.12318      174.74842      1.1607641      0.91996966   
    222000  -2507.8675      5289.168       2781.3006      229.45841      295.78367      174.73529      1.1605172      0.89819557   
    223000  -2528.8747      5387.6256      2858.7509      887.53904      301.28967      174.82648      1.1602337      0.90735912   
    224000  -2515.8743      5345.0602      2829.1859      714.23263      298.90931      174.74778      1.1602675      0.91491567   
    225000  -2455.4379      5336.549       2881.1111      354.99362      298.43334      174.73483      1.1604881      0.9058508    
    226000  -2519.3351      5324.0606      2804.7255      136.7714       297.73496      174.77403      1.1605996      0.89805276   
    227000  -2577.8937      5302.9792      2725.0855      237.64866      296.55603      174.82707      1.160631       0.9107439    
    228000  -2508.3686      5413.6207      2905.2521      158.6352       302.74338      174.65723      1.1606438      0.90576681   
    229000  -2497.7493      5406.6905      2908.9412     -187.85143      302.35583      174.72075      1.1609504      0.91575992   
    230000  -2510.0441      5379.2858      2869.2416     -307.39743      300.82329      174.71064      1.1609854      0.91060535   
    231000  -2591.0392      5402.9484      2811.9093     -308.10359      302.14656      174.81259      1.1610536      0.90831354   
    232000  -2587.4872      5288.648       2701.1607      170.97538      295.75459      174.8045       1.1605909      0.90204007   
    233000  -2561.3694      5427.7067      2866.3374      699.80549      303.53111      174.71766      1.1603248      0.9089274    
    234000  -2516.0547      5369.7255      2853.6708      1036.3827      300.28865      174.67386      1.1599505      0.90048111   
    235000  -2545.2057      5330.9723      2785.7666      674.01399      298.12147      174.75103      1.1603298      0.91020886   
    236000  -2609.9548      5394.9331      2784.9783      258.69435      301.69833      174.69497      1.1605424      0.90792678   
    237000  -2561.8139      5359.3989      2797.5849      112.01033      299.71116      174.72735      1.1606857      0.90476849   
    238000  -2442.5933      5318.7215      2876.1282     -247.2049       297.43638      174.65133      1.1609774      0.90519364   
    239000  -2553.7255      5315.5341      2761.8086     -614.27569      297.25813      174.77184      1.1611932      0.90450083   
    240000  -2554.9193      5316.3363      2761.417      -125.07182      297.30299      174.72225      1.1608315      0.90983296   
    241000  -2520.7924      5402.6848      2881.8924      278.13322      302.13182      174.68363      1.160588       0.90597592   
    242000  -2555.0386      5491.1399      2936.1013      610.1242       307.07845      174.72196      1.1602643      0.9031048    
    243000  -2489.828       5309.4915      2819.6635      666.7913       296.92022      174.68251      1.1602178      0.90761238   
    244000  -2479.0801      5326.3112      2847.2311      525.61991      297.86082      174.72447      1.1604434      0.90685262   
    245000  -2558.8161      5310.6803      2751.8642      383.08098      296.98669      174.78273      1.160463       0.91316744   
    246000  -2444.1066      5369.9519      2925.8453     -122.5058       300.30131      174.69507      1.1608617      0.90602131   
    247000  -2565.5206      5454.0867      2888.5661     -44.32931       305.00634      174.70281      1.1608444      0.90951735   
    248000  -2503.3984      5393.1644      2889.766      -380.96449      301.59942      174.73144      1.16104        0.91190674   
    249000  -2522.6142      5337.9533      2815.3392     -322.12184      298.51187      174.79785      1.1608897      0.91183115   
    250000  -2552.8876      5398.1081      2845.2205      320.31257      301.87588      174.70921      1.1605948      0.92238752   
    251000  -2670.3128      5311.4426      2641.1298      280.1126       297.02932      174.78997      1.160571       0.92434682   
    252000  -2609.6207      5379.1792      2769.5585      250.79251      300.81733      174.89114      1.1606159      0.91736059   
    253000  -2431.9601      5367.3686      2935.4085      375.1439       300.15685      174.77367      1.1604141      0.90120917   
    254000  -2547.6209      5354.8482      2807.2273      374.63789      299.45668      174.76448      1.1605145      0.91457221   
    255000  -2548.8736      5257.4688      2708.5951      102.76917      294.01097      174.74138      1.1606124      0.90939319   
    256000  -2521.7172      5385.5483      2863.8311     -449.45718      301.1735       174.79019      1.1610984      0.9105456    
    257000  -2591.7625      5310.925       2719.1625     -432.75326      297.00038      174.77745      1.1610487      0.91030104   
    258000  -2583.6715      5442.8048      2859.1334     -126.90073      304.37543      174.80366      1.1609017      0.91431434   
    259000  -2478.3393      5307.5122      2829.1729      225.65073      296.80953      174.72078      1.1605767      0.90101447   
    260000  -2556.8437      5323.9958      2767.1521      258.55893      297.73133      174.75133      1.160502       0.90772651   
    261000  -2471.4058      5392.6014      2921.1956      595.83368      301.56793      174.7265       1.1603482      0.91087752   
    262000  -2592.3242      5345.8993      2753.5752      1037.1183      298.95623      174.85253      1.1600075      0.91222913   
    263000  -2628.9478      5303.5069      2674.5592      391.79952      296.58554      174.8214       1.1605593      0.92280262   
    264000  -2522.5697      5318.0858      2795.516       168.03627      297.40083      174.74381      1.1606337      0.90333202   
    265000  -2600.7994      5360.4781      2759.6787     -335.65633      299.77152      174.83649      1.160958       0.89815788   
    266000  -2456.9273      5243.716       2786.7888     -60.284618      293.24188      174.76283      1.1607966      0.8993059    
    267000  -2485.9733      5338.74        2852.7666     -22.397521      298.55586      174.79871      1.160724       0.89015841   
    268000  -2469.6609      5326.9733      2857.3124      73.387606      297.89784      174.8011       1.1607168      0.89832237   
    269000  -2506.9634      5339.1076      2832.1442      452.9062       298.57642      174.78213      1.1604744      0.90567763   
    270000  -2540.3741      5364.2335      2823.8595      576.53196      299.98153      174.79943      1.1603249      0.90179358   
    271000  -2474.1943      5414.3694      2940.1751      451.31783      302.78525      174.70856      1.1604308      0.90946704   
    272000  -2422.2404      5347.3809      2925.1404      390.88169      299.03908      174.65483      1.1604297      0.89787839   
    273000  -2459.935       5498.1502      3038.2152      174.68799      307.47049      174.70945      1.1606174      0.88784802   
    274000  -2432.3926      5403.4759      2971.0832     -134.72107      302.17606      174.77609      1.1608547      0.8867877    
    275000  -2441.8762      5428.3435      2986.4674     -148.35354      303.56672      174.74046      1.1609322      0.89607744   
    276000  -2532.2652      5528.8932      2996.628      -393.35506      309.18971      174.74336      1.1611095      0.89640713   
    277000  -2460.9075      5398.7087      2937.8012      91.365788      301.90947      174.74662      1.1607309      0.89510161   
    278000  -2351.4685      5410.1848      3058.7163      370.16773      302.55124      174.67298      1.1605621      0.89410035   
    279000  -2403.2131      5381.402       2978.1889      828.40717      300.94163      174.68703      1.1601309      0.88782767   
    280000  -2342.1319      5463.6027      3121.4708      814.30788      305.53851      174.6516       1.1601404      0.8876684    
    281000  -2364.6536      5422.9283      3058.2747      387.37614      303.26389      174.71982      1.16049        0.88832569   
    282000  -2451.6816      5432.1929      2980.5113      148.99292      303.78199      174.73657      1.1606736      0.89628977   
    283000  -2389.9116      5396.0345      3006.1229     -150.91653      301.75992      174.6628       1.1609244      0.8974436    
    284000  -2470.2718      5436.4613      2966.1894     -148.57814      304.02069      174.72294      1.1608863      0.89568788   
    285000  -2394.0843      5475.093       3081.0087      148.79564      306.18107      174.60062      1.1607497      0.89326609   
    286000  -2477.7211      5390.3251      2912.604       174.27289      301.44063      174.76994      1.1607148      0.89873644   
    287000  -2460.1807      5351.2689      2891.0882      321.00026      299.25651      174.69219      1.1604462      0.89485867   
    288000  -2465.4112      5384.9049      2919.4937      352.30835      301.13752      174.71476      1.1605153      0.905181     
    289000  -2521.683       5323.2828      2801.5997      675.75768      297.69146      174.72324      1.1602448      0.9060125    
    290000  -2510.5528      5385.8667      2875.314       520.81137      301.19131      174.70857      1.1603422      0.90251939   
    291000  -2560.7486      5372.3652      2811.6166      133.58011      300.43627      174.66144      1.1606618      0.91254976   
    292000  -2593.6566      5351.1105      2757.4539     -57.792027      299.24765      174.66796      1.1607491      0.91853331   
    293000  -2682.5452      5462.3993      2779.8541     -506.88902      305.47121      174.76874      1.161182       0.92457704   
    294000  -2490.9432      5378.3712      2887.428      -80.769927      300.77214      174.69263      1.1607933      0.9147079    
    295000  -2533.8451      5363.7715      2829.9265      113.50216      299.95569      174.77528      1.160684       0.91615657   
    296000  -2556.4663      5467.3593      2910.893       632.72857      305.74858      174.75899      1.1603461      0.90621273   
    297000  -2497.6665      5355.5444      2857.8779      545.82474      299.49561      174.66853      1.160366       0.90807382   
    298000  -2498.3469      5388.137       2889.7901      488.0859       301.31827      174.76357      1.1603815      0.90886325   
    299000  -2622.6873      5353.8449      2731.1577      659.13422      299.40057      174.73329      1.1602887      0.91392742   
    300000  -2640.0222      5311.3698      2671.3475      56.247868      297.02525      174.86708      1.1606921      0.9136764    
    301000  -2562.3128      5462.1294      2899.8167     -72.973399      305.45611      174.7633       1.1608055      0.90481553   
    302000  -2522.1965      5424.6083      2902.4118     -641.31135      303.35784      174.77813      1.1612959      0.90041633   
    303000  -2629.4524      5266.8766      2637.4242     -276.28113      294.53708      174.86538      1.160886       0.90500249   
    303055  -2559.956       5312.2404      2752.2844      88.57155       297.07394      174.74702      1.1606408      0.90674834   
Loop time of 484.658 on 36 procs for 100000 steps with 6000 atoms

Performance: 4.457 ns/day, 5.385 hours/ns, 206.331 timesteps/s, 1.238 Matom-step/s
99.2% CPU use with 36 MPI tasks x no OpenMP threads

MPI task timing breakdown:
Section |  min time  |  avg time  |  max time  |%varavg| %total
---------------------------------------------------------------
Pair    | 59.65      | 64.978     | 71.607     |  37.5 | 13.41
Bond    | 0.68829    | 0.72124    | 0.76318    |   2.2 |  0.15
Kspace  | 312.16     | 320.55     | 326.76     |  18.2 | 66.14
Neigh   | 0.35597    | 0.36598    | 0.37483    |   0.9 |  0.08
Comm    | 33.593     | 35.994     | 38.66      |  17.5 |  7.43
Output  | 0.013884   | 0.015178   | 0.058773   |   6.0 |  0.00
Modify  | 28.572     | 42.99      | 60.948     | 203.7 |  8.87
Other   |            | 19.04      |            |       |  3.93

Nlocal:        166.667 ave         181 max         141 min
Histogram: 1 1 2 1 2 5 7 6 8 3
Nghost:        3579.89 ave        3638 max        3529 min
Histogram: 3 6 1 6 4 4 3 4 2 3
Neighs:        43829.1 ave       48052 max       34482 min
Histogram: 1 0 2 2 0 3 6 11 8 3

Total # of neighbors = 1577847
Ave neighs/atom = 262.9745
Ave special neighs/atom = 2
Neighbor list builds = 263
Dangerous builds = 0

timestep    0.5
run         ${Ninptpre}
run         100000
PPPM initialization ...
  using 12-bit tables for long-range coulomb (../kspace.cpp:342)
  G vector (1/distance) = 0.26819225
  grid = 50 50 50
  stencil order = 5
  estimated absolute RMS force accuracy = 0.00040502176
  estimated relative force accuracy = 1.219711e-06
  using double precision KISS FFT
  3d grid and FFT values/proc = 12500 5000
Generated 1 of 1 mixed pair_coeff terms from arithmetic mixing rule
Per MPI rank memory allocation (min/avg/max) = 8.041 | 8.179 | 8.941 Mbytes
   Step         PotEng         KinEng         TotEng         Press           Temp       c_theta_ave    c_length_ave    v_Density   
    303055  -2559.956       5312.2404      2752.2844      88.571882      297.07394      174.74702      1.1606408      0.90674834   
    304000  -2396.7692      5288.7391      2891.9699      96.480914      295.75969      174.63567      1.1607383      0.90772486   
    305000  -2609.3846      5391.1129      2781.7283      466.27257      301.48469      174.80279      1.1604332      0.91297538   
    306000  -2661.3821      5276.6416      2615.2595      759.74059      295.08317      174.71557      1.160231       0.92645114   
    307000  -2560.289       5333.9588      2773.6699      307.67725      298.28849      174.7204       1.1605864      0.9179055    
    308000  -2565.7526      5365.8821      2800.1295     -14.204459      300.07372      174.73587      1.1607059      0.91848436   
    309000  -2622.6065      5330.8581      2708.2516     -217.76574      298.11509      174.69882      1.1609339      0.92638553   
    310000  -2560.7138      5309.415       2748.7012      67.793477      296.91593      174.7418       1.1607095      0.90776151   
    311000  -2534.0068      5331.1076      2797.1008      592.39019      298.12904      174.80637      1.1603204      0.91085972   
    312000  -2570.8242      5355.9346      2785.1105      604.28576      299.51743      174.69747      1.1602691      0.90660069   
    313000  -2497.5921      5292.0004      2794.4083      414.20632      295.94207      174.74435      1.1604334      0.90080397   
    314000  -2438.2886      5372.8966      2934.6079     -328.21902      300.46599      174.77806      1.1609765      0.89939805   
    315000  -2481.9622      5343.218       2861.2557     -76.454975      298.80629      174.78866      1.1608072      0.90657829   
    316000  -2472.7278      5380.2681      2907.5403      24.72815       300.87822      174.72618      1.160794       0.90556663   
    317000  -2563.009       5472.7129      2909.7039      313.39988      306.04797      174.73162      1.1605934      0.91469445   
    318000  -2521.1536      5322.6983      2801.5447      735.03509      297.65877      174.7316       1.1601819      0.90541742   
    319000  -2560.1267      5269.8856      2709.759       348.31226      294.70535      174.67706      1.1605053      0.91448659   
    320000  -2484.5453      5345.6812      2861.1359     -396.28695      298.94403      174.74169      1.161005       0.89850731   
    321000  -2578.8502      5417.7962      2838.946      -289.72855      302.97689      174.70725      1.1608734      0.90603252   
    322000  -2529.9407      5452.8028      2922.8621      108.81184      304.93455      174.85072      1.1606557      0.90583196   
    323000  -2558.195       5486.6895      2928.4944      774.83277      306.82958      174.74816      1.160251       0.91511951   
    324000  -2490.9304      5338.1103      2847.1798      309.07317      298.52065      174.66225      1.160507       0.90816604   
    325000  -2617.7037      5348.654       2730.9503     -17.06365       299.11028      174.72592      1.1607966      0.92149809   
    326000  -2587.1679      5305.674       2718.5062     -157.57559      296.70673      174.76219      1.1608361      0.91927035   
    327000  -2589.1175      5296.727       2707.6095      46.839901      296.20639      174.72032      1.1607068      0.91475446   
    328000  -2450.4078      5367.1861      2916.7783      538.33678      300.14664      174.63662      1.160409       0.90076862   
    329000  -2641.7111      5386.7115      2745.0003      534.22118      301.23855      174.83978      1.1603686      0.9045492    
    330000  -2587.4919      5453.7404      2866.2486      219.33234      304.98698      174.71488      1.1606075      0.91461311   
    331000  -2533.1771      5430.3766      2897.1995     -287.40651      303.68042      174.74737      1.1610134      0.91201759   
    332000  -2486.2874      5306.9452      2820.6578     -372.81336      296.77782      174.65299      1.1610313      0.91371924   
    333000  -2531.3116      5448.8534      2917.5418      224.06805      304.71368      174.77749      1.1605548      0.90891184   
    334000  -2598.3898      5412.3395      2813.9497      538.0732       302.67174      174.73837      1.1603339      0.91251459   
    335000  -2717.8308      5418.9212      2701.0904      758.33866      303.0398       174.77295      1.1602427      0.92621417   
    336000  -2578.2058      5365.8358      2787.63        122.54637      300.07113      174.73962      1.1606692      0.9194422    
    337000  -2551.3421      5350.0283      2798.6862     -49.311288      299.18713      174.83068      1.1607289      0.90659418   
    338000  -2526.1892      5355.0181      2828.8289     -176.76735      299.46618      174.76713      1.1609166      0.90630414   
    339000  -2502.9808      5359.5979      2856.6172      260.5201       299.72229      174.72549      1.160577       0.90821195   
    340000  -2386.3468      5303.1331      2916.7863      303.89842      296.56464      174.72733      1.1605269      0.90329372   
    341000  -2726.6628      5452.3466      2725.6838      446.75961      304.90904      174.78688      1.1604805      0.93161665   
    342000  -2629.7166      5315.4331      2685.7165      27.920105      297.25249      174.6971       1.1607288      0.93107088   
    343000  -2579.8561      5401.2322      2821.376      -527.50143      302.05058      174.68879      1.1611558      0.92095536   
    344000  -2613.9954      5318.2403      2704.2448      64.199383      297.40947      174.82394      1.1606869      0.92530449   
    345000  -2645.9742      5391.1838      2745.2096      531.12492      301.48865      174.82232      1.1603646      0.92385197   
    346000  -2497.3744      5388.3727      2890.9983      525.24288      301.33145      174.74044      1.1604312      0.91352788   
    347000  -2481.1084      5313.083       2831.9747      180.8131       297.12106      174.82379      1.1605759      0.90306054   
    348000  -2577.5842      5349.5929      2772.0087     -64.265547      299.16279      174.82899      1.1607941      0.91788118   
    349000  -2614.8702      5408.9364      2794.0662      101.9923       302.48143      174.86237      1.1607429      0.91974328   
    350000  -2592.836       5438.4503      2845.6143      241.62212      304.13192      174.79962      1.1606317      0.91395226   
    351000  -2494.776       5358.9502      2864.1742      525.23251      299.68607      174.78888      1.1603065      0.89791781   
    352000  -2399.0327      5289.8076      2890.7749      391.53903      295.81944      174.68531      1.1604709      0.89596781   
    353000  -2553.9364      5331.5321      2777.5957      58.216471      298.15278      174.79996      1.1607463      0.91152239   
    354000  -2525.9506      5397.2523      2871.3018     -87.854591      301.82802      174.68671      1.1608027      0.90406485   
    355000  -2522.1386      5370.001       2847.8624     -219.94606      300.30406      174.80003      1.1609143      0.90861978   
    356000  -2541.6516      5329.3818      2787.7302      355.31028      298.03253      174.71843      1.1605513      0.91795651   
    357000  -2534.7626      5404.6131      2869.8505      637.1495       302.23965      174.69919      1.1602523      0.90752037   
    358000  -2568.0009      5367.5637      2799.5628      372.98122      300.16776      174.75604      1.1604923      0.89991273   
    359000  -2551.9484      5308.4267      2756.4783     -236.36805      296.86067      174.79282      1.160886       0.90395933   
    360000  -2482.1831      5347.3229      2865.1398     -785.86543      299.03584      174.7826       1.1613033      0.90658869   
    361000  -2682.5756      5377.4376      2694.862       186.91338      300.71993      174.83871      1.1606882      0.91985634   
    362000  -2583.3214      5357.0676      2773.7462      669.32708      299.58079      174.71078      1.1602836      0.92380858   
    363000  -2632.148       5305.9173      2673.7693      528.91503      296.72034      174.81345      1.1603277      0.91629828   
    364000  -2494.4337      5343.2602      2848.8265      113.16945      298.80865      174.67192      1.1606382      0.90094082   
    365000  -2566.4799      5343.1732      2776.6933     -158.40366      298.80378      174.8109       1.1608868      0.90348312   
    366000  -2504.0579      5288.2794      2784.2215      22.555594      295.73398      174.82486      1.1607443      0.8986408    
    367000  -2539.0606      5426.2394      2887.1788      287.96781      303.44905      174.75799      1.1605458      0.91040281   
    368000  -2601.4991      5410.685       2809.1859      621.93531      302.57921      174.74924      1.1602458      0.91322922   
    369000  -2590.4835      5329.5812      2739.0976      680.24034      298.04368      174.74849      1.1601873      0.90378199   
    370000  -2471.7271      5303.0951      2831.368       6.8970671      296.56251      174.69357      1.1607582      0.89888722   
    371000  -2491.5892      5304.6559      2813.0666     -686.1715       296.64979      174.69949      1.1611766      0.90969458   
    372000  -2463.1679      5327.9547      2864.7868     -95.962731      297.95273      174.72697      1.1608315      0.90400924   
    373000  -2489.0526      5411.3151      2922.2624      546.53177      302.61445      174.67603      1.1603682      0.90642641   
    374000  -2495.6471      5427.0324      2931.3854      659.09592      303.4934       174.68216      1.160363       0.90743205   
    375000  -2537.4948      5350.6462      2813.1515      279.59301      299.22169      174.68675      1.1605476      0.90564042   
    376000  -2461.2988      5235.2816      2773.9828     -131.00045      292.77021      174.69147      1.1607711      0.90609435   
    377000  -2486.8037      5385.6823      2898.8786     -280.8495       301.181        174.72064      1.1609436      0.90709582   
    378000  -2556.1004      5364.3802      2808.2798      400.56607      299.98973      174.69096      1.1605168      0.91875989   
    379000  -2594.458       5373.9647      2779.5067      555.93161      300.52572      174.70991      1.160353       0.92487749   
    380000  -2529.3069      5404.6641      2875.3571      365.83294      302.24251      174.75949      1.1604742      0.91053217   
    381000  -2577.5018      5342.8022      2765.3005     -30.585356      298.78304      174.68607      1.1607792      0.91862819   
    382000  -2580.3184      5443.1515      2862.8331     -221.29822      304.39482      174.72878      1.1609219      0.91380527   
    383000  -2469.4602      5276.6606      2807.2004      122.78247      295.08423      174.71121      1.1606441      0.91101799   
    384000  -2450.6644      5387.7629      2937.0985      415.75844      301.29735      174.69262      1.160463       0.90792422   
    385000  -2498.3019      5271.2603      2772.9584      1039.393       294.78223      174.76489      1.1600112      0.90502443   
    386000  -2493.1881      5340.0509      2846.8628      253.8398       298.62917      174.75098      1.160562       0.90134947   
    387000  -2530.4643      5350.2101      2819.7458     -187.82343      299.1973       174.71633      1.1608901      0.90928131   
    388000  -2505.0619      5264.4696      2759.4078     -569.49012      294.40248      174.73116      1.1612098      0.90801031   
    389000  -2522.506       5352.5587      2830.0527      179.64462      299.32864      174.68692      1.1606507      0.90552159   
    390000  -2484.4872      5417.4672      2932.98        425.69824      302.95849      174.75798      1.1604691      0.89722464   
    391000  -2544.3992      5378.5971      2834.1978      942.94111      300.78477      174.67299      1.160116       0.9144431    
    392000  -2588.8506      5427.0809      2838.2304      214.68074      303.49611      174.76822      1.1606415      0.90563072   
    393000  -2469.3683      5390.5643      2921.196      -856.41089      301.45401      174.6991       1.1613534      0.8991328    
    394000  -2603.1801      5330.1707      2726.9907     -160.46428      298.07665      174.79006      1.1607674      0.91029379   
    395000  -2429.2557      5446.1147      3016.8589      275.65578      304.56053      174.62419      1.1604988      0.90418178   
    396000  -2603.759       5425.5879      2821.8289      811.40767      303.41262      174.78165      1.1602201      0.91308988   
    397000  -2493.2598      5276.9683      2783.7086      284.8148       295.10144      174.7046       1.1604769      0.89983632   
    398000  -2580.82        5308.3801      2727.5601     -115.27849      296.85806      174.71025      1.1608061      0.9114267    
    399000  -2652.2732      5393.138       2740.8648     -85.740869      301.59794      174.7106       1.1608072      0.92067824   
    400000  -2614.2378      5300.1041      2685.8662     -4.1827715      296.39525      174.72818      1.1607524      0.92311715   
    401000  -2676.8533      5366.3252      2689.4719      331.66284      300.0985       174.83031      1.1605529      0.9191256    
    402000  -2514.0758      5256.6828      2742.607       743.16193      293.96702      174.68662      1.1602512      0.91455007   
    403000  -2416.1244      5290.5508      2874.4263      183.88611      295.861        174.61819      1.1605802      0.89616222   
    403055  -2390.8396      5412.8168      3021.9772     -143.47043      302.69843      174.64787      1.1608892      0.899815     
Loop time of 483.718 on 36 procs for 100000 steps with 6000 atoms

Performance: 8.931 ns/day, 2.687 hours/ns, 206.732 timesteps/s, 1.240 Matom-step/s
99.2% CPU use with 36 MPI tasks x no OpenMP threads

MPI task timing breakdown:
Section |  min time  |  avg time  |  max time  |%varavg| %total
---------------------------------------------------------------
Pair    | 58.702     | 65.842     | 72.822     |  38.6 | 13.61
Bond    | 0.70049    | 0.7216     | 0.74936    |   1.4 |  0.15
Kspace  | 311.25     | 319.06     | 327.33     |  17.5 | 65.96
Neigh   | 0.71675    | 0.74008    | 0.75938    |   1.3 |  0.15
Comm    | 32.969     | 35.388     | 38.329     |  18.4 |  7.32
Output  | 0.013395   | 0.014741   | 0.060649   |   6.4 |  0.00
Modify  | 28.708     | 42.905     | 60.858     | 203.7 |  8.87
Other   |            | 19.05      |            |       |  3.94

Nlocal:        166.667 ave         191 max         143 min
Histogram: 1 2 6 4 4 7 7 2 2 1
Nghost:        3571.39 ave        3656 max        3495 min
Histogram: 1 5 5 4 5 5 2 6 1 2
Neighs:        43255.6 ave       50853 max       35654 min
Histogram: 2 3 4 4 4 4 5 6 3 1

Total # of neighbors = 1557203
Ave neighs/atom = 259.53383
Ave special neighs/atom = 2
Neighbor list builds = 530
Dangerous builds = 0

#-----------------------
# Run (Initialization)
#-----------------------

unfix       runnpt
reset_timestep 0

fix runnpt all npt temp ${simulationTemp} ${simulationTemp} 100 iso ${pressure} ${pressure} 1000
fix runnpt all npt temp 300 ${simulationTemp} 100 iso ${pressure} ${pressure} 1000
fix runnpt all npt temp 300 300 100 iso ${pressure} ${pressure} 1000
fix runnpt all npt temp 300 300 100 iso 197.4 ${pressure} 1000
fix runnpt all npt temp 300 300 100 iso 197.4 197.4 1000

timestep    ${timestep}
timestep    0.5
run         ${Ninpt}
run         1000000
PPPM initialization ...
  using 12-bit tables for long-range coulomb (../kspace.cpp:342)
  G vector (1/distance) = 0.26805434
  grid = 50 50 50
  stencil order = 5
  estimated absolute RMS force accuracy = 0.00040798542
  estimated relative force accuracy = 1.228636e-06
  using double precision KISS FFT
  3d grid and FFT values/proc = 12500 5000
Generated 1 of 1 mixed pair_coeff terms from arithmetic mixing rule
Per MPI rank memory allocation (min/avg/max) = 8.042 | 8.179 | 8.941 Mbytes
   Step         PotEng         KinEng         TotEng         Press           Temp       c_theta_ave    c_length_ave    v_Density   
         0  -2390.8396      5412.8168      3021.9772     -143.47007      302.69843      174.64787      1.1608892      0.899815     
      1000  -2436.0436      5394.0323      2957.9888      173.28178      301.64795      174.62525      1.1606325      0.90620558   
      2000  -2576.7268      5441.4835      2864.7567      962.78708      304.30154      174.76171      1.1601478      0.91811158   
      3000  -2662.0229      5461.9062      2799.8833      527.62598      305.44363      174.83395      1.1604051      0.92387698   
      4000  -2587.9834      5387.8852      2799.9018      179.15651      301.30419      174.70065      1.1607023      0.91696941   
      5000  -2547.1591      5411.4887      2864.3296     -156.4618       302.62416      174.74297      1.1608484      0.90799108   
      6000  -2516.5756      5421.2839      2904.7083      508.08428      303.17193      174.71188      1.1605329      0.91423394   
      7000  -2533.31        5441.1105      2907.8005      487.96513      304.28069      174.74743      1.1603767      0.90024067   
      8000  -2602.2975      5374.8378      2772.5403      409.8361       300.57454      174.66027      1.1604702      0.90858998   
      9000  -2644.6287      5385.5877      2740.959       11.91521       301.17571      174.78433      1.1606733      0.9125889    
     10000  -2631.1957      5288.0672      2656.8715      514.16412      295.72212      174.70758      1.1603971      0.92126368   
     11000  -2549.1627      5298.2929      2749.1303      448.5641       296.29396      174.72985      1.1604395      0.91627437   
     12000  -2638.7292      5399.2541      2760.5249     -33.99337       301.93997      174.74375      1.1608067      0.91521617   
     13000  -2568.7317      5406.0138      2837.2821     -65.342656      302.31798      174.69583      1.1608343      0.91809538   
     14000  -2479.541       5307.1235      2827.5825      543.96123      296.78779      174.65443      1.1603568      0.90995398   
     15000  -2495.5069      5393.7987      2898.2917     -523.71014      301.63488      174.77102      1.1611612      0.90604903   
     16000  -2567.8528      5375.5773      2807.7245     -486.40911      300.6159       174.7398       1.1610353      0.90061345   
     17000  -2547.4404      5339.5178      2792.0774      423.51612      298.59936      174.62252      1.160413       0.91197764   
     18000  -2563.0792      5321.9824      2758.9032     -88.912252      297.61874      174.72629      1.1608372      0.9148281    
     19000  -2514.4942      5302.9175      2788.4233      108.43283      296.55258      174.67975      1.1606403      0.91171302   
     20000  -2512.2874      5225.939       2713.6516     -40.222679      292.24775      174.73509      1.1608461      0.90824354   
     21000  -2603.8313      5339.7176      2735.8863      305.19397      298.61053      174.81331      1.1605485      0.91301232   
     22000  -2584.4433      5362.5499      2778.1065      309.07316      299.88737      174.70449      1.160526       0.92091702   
     23000  -2586.1903      5335.3077      2749.1174      369.20911      298.36392      174.75207      1.1605061      0.92165081   
     24000  -2677.6779      5322.388       2644.7102      700.62737      297.64142      174.74954      1.1602893      0.92399195   
     25000  -2549.5436      5357.2639      2807.7203     -799.41116      299.59177      174.70419      1.1613403      0.91181774   
     26000  -2496.2149      5368.7399      2872.525       326.32459      300.23354      174.66538      1.1604596      0.90774532   
     27000  -2628.0479      5412.066       2784.0181     -76.50233       302.65644      174.81029      1.1608661      0.92676409   
     28000  -2671.5462      5312.7257      2641.1795     -141.75997      297.10108      174.68461      1.1608437      0.92823887   
     29000  -2619.8138      5360.5492      2740.7355      862.68587      299.77549      174.6761       1.1601076      0.92634587   
     30000  -2734.4983      5459.6285      2725.1302     -247.50662      305.31626      174.86939      1.1609355      0.92934834   
     31000  -2596.0939      5323.4349      2727.341       328.71568      297.69997      174.7701       1.1605716      0.92872871   
     32000  -2473.0095      5341.6645      2868.655       63.717992      298.71941      174.7064       1.1606313      0.9071454    
     33000  -2531.2119      5293.8816      2762.6697     -442.1571       296.04727      174.72069      1.1610555      0.90826135   
     34000  -2573.5793      5357.1278      2783.5486      86.521137      299.58416      174.68841      1.1607399      0.91560022   
     35000  -2558.6576      5296.7185      2738.0609     -547.94287      296.20592      174.70553      1.1611293      0.91166818   
     36000  -2541.5381      5330.0165      2788.4784      539.12559      298.06803      174.7427       1.1603556      0.91550893   
     37000  -2545.3706      5322.4765      2777.1059     -358.97849      297.64637      174.73623      1.1609453      0.90918065   
     38000  -2565.4643      5301.3743      2735.91       -37.45554       296.46628      174.79823      1.1608058      0.91347025   
     39000  -2533.0209      5347.8825      2814.8616      141.96405      299.06714      174.57618      1.1606099      0.91214482   
     40000  -2664.0513      5406.7573      2742.706       597.38353      302.35956      174.81467      1.1604358      0.93059269   
     41000  -2588.3862      5432.3067      2843.9205      516.03643      303.78835      174.66873      1.160435       0.92741594   
     42000  -2429.9575      5334.9427      2904.9852     -18.267988      298.34351      174.625        1.1607866      0.91032741   
     43000  -2459.6516      5458.4644      2998.8127      706.46719      305.25115      174.71369      1.1602369      0.89971314   
     44000  -2414.2794      5327.8355      2913.5561     -36.444638      297.94606      174.64078      1.1608419      0.8970544    
     45000  -2525.696       5407.1004      2881.4044      334.38252      302.37875      174.66152      1.1604352      0.8998456    
     46000  -2558.2375      5348.9243      2790.6869      344.72814      299.1254       174.6957       1.1605668      0.91304518   
     47000  -2506.3276      5339.8004      2833.4728     -97.676449      298.61516      174.66823      1.1608209      0.91357988   
     48000  -2636.9159      5361.9139      2724.9981      694.96919      299.85181      174.76368      1.1603597      0.91970173   
     49000  -2590.5967      5421.7344      2831.1377      320.76724      303.19712      174.72177      1.1605392      0.90818207   
     50000  -2446.5187      5447.9577      3001.439       41.967329      304.6636       174.69579      1.1607053      0.90008878   
     51000  -2531.5243      5360.3466      2828.8223     -279.90552      299.76416      174.67862      1.1609792      0.91083815   
     52000  -2638.647       5292.0908      2653.4439     -396.99964      295.94713      174.76142      1.1610043      0.9173634    
     53000  -2518.2664      5343.4146      2825.1482      130.04522      298.81728      174.64684      1.1606739      0.91245248   
     54000  -2546.9988      5429.2215      2882.2228      28.895675      303.61582      174.71686      1.1606549      0.90984407   
     55000  -2604.6355      5376.8844      2772.2488      942.08106      300.68899      174.68807      1.1601522      0.92690807   
     56000  -2544.5936      5384.2586      2839.665       511.40554      301.10138      174.64094      1.1604759      0.92067422   
     57000  -2444.3691      5499.5225      3055.1533     -228.48546      307.54723      174.6747       1.1610315      0.90338095   
     58000  -2402.3117      5439.5362      3037.2245      572.61033      304.19265      174.64227      1.1602916      0.89520708   
     59000  -2555.3395      5434.0354      2878.6958     -1101.3014      303.88502      174.70319      1.1616013      0.9061867    
     60000  -2613.3481      5434.2566      2820.9085      307.63797      303.8974       174.68912      1.1605672      0.91337843   
     61000  -2617.3896      5435.6245      2818.2348     -23.357403      303.97389      174.75111      1.1607671      0.9134941    
     62000  -2722.2197      5303.2972      2581.0775      282.11357      296.57382      174.75881      1.1605734      0.92434996   
     63000  -2645.1537      5270.8252      2625.6716      166.30169      294.7579       174.72843      1.1606103      0.9151381    
     64000  -2488.3185      5409.5195      2921.201      -349.37592      302.51403      174.68986      1.1609564      0.90731676   
     65000  -2607.1976      5400.6513      2793.4537      242.05081      302.0181       174.79552      1.1606104      0.90882997   
     66000  -2507.4473      5328.7369      2821.2896      273.31581      297.99647      174.70847      1.1605432      0.9003996    
     67000  -2542.7285      5382.6915      2839.9631      239.2041       301.01375      174.76183      1.1605249      0.89706461   
     68000  -2487.3963      5347.0108      2859.6145     -58.987453      299.01839      174.6574       1.1607501      0.90016838   
     69000  -2496.5519      5307.7011      2811.1491     -3.1278873      296.82009      174.69298      1.1606834      0.90344029   
     70000  -2556.7117      5434.2153      2877.5036     -84.479799      303.89508      174.72466      1.160898       0.91338858   
     71000  -2577.8983      5406.3578      2828.4596      458.87204      302.33723      174.76011      1.1604487      0.91335819   
[...]
  11424000   160960.84      296.75257      253.19273      5306.4936     -2569.7082      2736.7854      0.90804056     0              0              0              28.902617      28.902617      192.68411    
  11425000   160960.84      299.15435      347.47225      5349.442      -2612.6938      2736.7482      0.90804056     0              0              0              28.902617      28.902617      192.68411    
  11426000   160960.84      297.87716      1089.2215      5326.6035     -2589.7323      2736.8712      0.90804056     0              0              0              28.902617      28.902617      192.68411    
  11427000   160960.84      298.00473      475.39542      5328.8847     -2592.3216      2736.5631      0.90804056     0              0              0              28.902617      28.902617      192.68411    
  11428000   160960.84      296.87358      259.66188      5308.6575     -2572.1742      2736.4833      0.90804056     0              0              0              28.902617      28.902617      192.68411    
  11429000   160960.84      302.28774      693.33905      5405.4729     -2669.1239      2736.349       0.90804056     0              0              0              28.902617      28.902617      192.68411    
  11430000   160960.84      298.76589     -107.08626      5342.4956     -2605.6712      2736.8243      0.90804056     0              0              0              28.902617      28.902617      192.68411    
  11431000   160960.84      298.99248      455.14547      5346.5475     -2609.6891      2736.8584      0.90804056     0              0              0              28.902617      28.902617      192.68411    
  11432000   160960.84      296.69078      687.24998      5305.3888     -2568.5096      2736.8792      0.90804056     0              0              0              28.902617      28.902617      192.68411    
  11433000   160960.84      300.38159      582.65412      5371.3875     -2634.814       2736.5735      0.90804056     0              0              0              28.902617      28.902617      192.68411    
  11434000   160960.84      299.34608     -93.657742      5352.8705     -2616.2138      2736.6567      0.90804056     0              0              0              28.902617      28.902617      192.68411    
  11435000   160960.84      297.4397       31.195609      5318.7809     -2582.0451      2736.7358      0.90804056     0              0              0              28.902617      28.902617      192.68411    
  11436000   160960.84      296.83187      117.8535       5307.9118     -2571.1307      2736.781       0.90804056     0              0              0              28.902617      28.902617      192.68411    
  11437000   160960.84      298.76809      941.00677      5342.5351     -2605.7291      2736.806       0.90804056     0              0              0              28.902617      28.902617      192.68411    
  11438000   160960.84      300.51311      1115.3744      5373.7392     -2637.1336      2736.6055      0.90804056     0              0              0              28.902617      28.902617      192.68411    
  11439000   160960.84      300.24854     -235.04489      5369.0081     -2632.3689      2736.6392      0.90804056     0              0              0              28.902617      28.902617      192.68411    
  11440000   160960.84      298.53405     -342.76036      5338.35       -2601.3815      2736.9685      0.90804056     0              0              0              28.902617      28.902617      192.68411    
  11441000   160960.84      297.85221      669.77833      5326.1573     -2589.1805      2736.9767      0.90804056     0              0              0              28.902617      28.902617      192.68411    
  11442000   160960.84      297.08009      196.05848      5312.3503     -2575.6589      2736.6914      0.90804056     0              0              0              28.902617      28.902617      192.68411    
  11443000   160960.84      297.58553      798.59856      5321.3885     -2584.6782      2736.7103      0.90804056     0              0              0              28.902617      28.902617      192.68411    
  11444000   160960.84      298.72985      739.35481      5341.8511     -2604.9616      2736.8895      0.90804056     0              0              0              28.902617      28.902617      192.68411    
  11445000   160960.84      298.74198      410.21413      5342.068      -2605.0329      2737.0352      0.90804056     0              0              0              28.902617      28.902617      192.68411    
  11446000   160960.84      301.75667      157.53867      5395.9764     -2659.0775      2736.8988      0.90804056     0              0              0              28.902617      28.902617      192.68411    
  11447000   160960.84      302.00252     -142.25514      5400.3727     -2663.9938      2736.3789      0.90804056     0              0              0              28.902617      28.902617      192.68411    
  11448000   160960.84      301.10526     -16.577487      5384.3279     -2647.7481      2736.5798      0.90804056     0              0              0              28.902617      28.902617      192.68411    
  11449000   160960.84      297.35905      256.49051      5317.3386     -2580.2151      2737.1235      0.90804056     0              0              0              28.902617      28.902617      192.68411    
  11450000   160960.84      298.13794      247.55702      5331.2667     -2594.1498      2737.1169      0.90804056     0              0              0              28.902617      28.902617      192.68411    
  11451000   160960.84      303.03686      235.34027      5418.8686     -2682.0928      2736.7758      0.90804056     0              0              0              28.902617      28.902617      192.68411    
  11452000   160960.84      299.85047      244.32345      5361.8899     -2625.0276      2736.8623      0.90804056     0              0              0              28.902617      28.902617      192.68411    
  11453000   160960.84      299.7908      -398.15083      5360.823      -2623.8817      2736.9413      0.90804056     0              0              0              28.902617      28.902617      192.68411    
  11454000   160960.84      300.07112      243.33434      5365.8356     -2629.0667      2736.7689      0.90804056     0              0              0              28.902617      28.902617      192.68411    
  11455000   160960.84      301.23117      84.76568       5386.5794     -2649.9198      2736.6596      0.90804056     0              0              0              28.902617      28.902617      192.68411    
  11456000   160960.84      297.6322       125.95622      5322.2231     -2585.2482      2736.9749      0.90804056     0              0              0              28.902617      28.902617      192.68411    
  11457000   160960.84      299.70699      302.10726      5359.3243     -2622.3556      2736.9687      0.90804056     0              0              0              28.902617      28.902617      192.68411    
  11458000   160960.84      299.93171      571.19244      5363.3426     -2626.6078      2736.7348      0.90804056     0              0              0              28.902617      28.902617      192.68411    
  11459000   160960.84      295.31427      745.15366      5280.7742     -2543.8729      2736.9012      0.90804056     0              0              0              28.902617      28.902617      192.68411    
  11460000   160960.84      300.10109      255.31724      5366.3715     -2629.2718      2737.0998      0.90804056     0              0              0              28.902617      28.902617      192.68411    
  11461000   160960.84      298.681        108.4568       5340.9777     -2604.1133      2736.8643      0.90804056     0              0              0              28.902617      28.902617      192.68411    
  11462000   160960.84      297.475        433.86089      5319.412      -2582.2029      2737.2091      0.90804056     0              0              0              28.902617      28.902617      192.68411    
  11463000   160960.84      295.48507      450.3271       5283.8283     -2546.6191      2737.2092      0.90804056     0              0              0              28.902617      28.902617      192.68411    
  11464000   160960.84      297.36986     -70.650876      5317.5321     -2580.5859      2736.9462      0.90804056     0              0              0              28.902617      28.902617      192.68411    
  11465000   160960.84      298.10528      294.7124       5330.6826     -2593.8712      2736.8114      0.90804056     0              0              0              28.902617      28.902617      192.68411    
  11466000   160960.84      295.88669      127.11228      5291.0102     -2553.9894      2737.0208      0.90804056     0              0              0              28.902617      28.902617      192.68411    
  11467000   160960.84      296.51081     -303.41353      5302.1706     -2565.1132      2737.0574      0.90804056     0              0              0              28.902617      28.902617      192.68411    
  11468000   160960.84      297.2663       81.393671      5315.6801     -2578.7588      2736.9213      0.90804056     0              0              0              28.902617      28.902617      192.68411    
  11469000   160960.84      298.75155      918.44434      5342.2393     -2605.4158      2736.8235      0.90804056     0              0              0              28.902617      28.902617      192.68411    
  11470000   160960.84      299.15626     -469.28812      5349.4762     -2612.4685      2737.0077      0.90804056     0              0              0              28.902617      28.902617      192.68411    
  11471000   160960.84      296.7506       378.34957      5306.4585     -2569.2965      2737.162       0.90804056     0              0              0              28.902617      28.902617      192.68411    
  11472000   160960.84      298.72223      618.57981      5341.715      -2604.7592      2736.9557      0.90804056     0              0              0              28.902617      28.902617      192.68411    
  11473000   160960.84      299.82226      167.08907      5361.3856     -2624.3849      2737.0006      0.90804056     0              0              0              28.902617      28.902617      192.68411    
  11474000   160960.84      298.12185      496.75085      5330.979      -2593.9802      2736.9988      0.90804056     0              0              0              28.902617      28.902617      192.68411    
  11475000   160960.84      297.45467      172.45377      5319.0485     -2582.1032      2736.9454      0.90804056     0              0              0              28.902617      28.902617      192.68411    
  11476000   160960.84      298.02532      139.97619      5329.2529     -2592.4755      2736.7774      0.90804056     0              0              0              28.902617      28.902617      192.68411    
  11477000   160960.84      297.84096      274.58691      5325.9562     -2589.2031      2736.7531      0.90804056     0              0              0              28.902617      28.902617      192.68411    
  11478000   160960.84      297.30452      404.59144      5316.3637     -2579.5563      2736.8073      0.90804056     0              0              0              28.902617      28.902617      192.68411    
  11479000   160960.84      299.25138      82.596791      5351.1772     -2614.476       2736.7012      0.90804056     0              0              0              28.902617      28.902617      192.68411    
  11480000   160960.84      299.84417      172.28609      5361.7773     -2625.1703      2736.607       0.90804056     0              0              0              28.902617      28.902617      192.68411    
  11481000   160960.84      296.62308      275.27895      5304.1782     -2567.3223      2736.856       0.90804056     0              0              0              28.902617      28.902617      192.68411    
  11482000   160960.84      296.70747      700.17558      5305.6872     -2568.7576      2736.9296      0.90804056     0              0              0              28.902617      28.902617      192.68411    
  11483000   160960.84      295.31767      244.36053      5280.8351     -2543.9819      2736.8532      0.90804056     0              0              0              28.902617      28.902617      192.68411    
  11484000   160960.84      301.22155     -311.81569      5386.4075     -2649.6854      2736.7221      0.90804056     0              0              0              28.902617      28.902617      192.68411    
  11485000   160960.84      299.05082      195.46599      5347.5907     -2610.6589      2736.9318      0.90804056     0              0              0              28.902617      28.902617      192.68411    
  11486000   160960.84      295.54155      169.00867      5284.8384     -2547.6948      2737.1435      0.90804056     0              0              0              28.902617      28.902617      192.68411    
  11487000   160960.84      300.0258       610.6196       5365.0252     -2628.1314      2736.8938      0.90804056     0              0              0              28.902617      28.902617      192.68411    
  11488000   160960.84      300.29246      249.35559      5369.7936     -2633.4205      2736.373       0.90804056     0              0              0              28.902617      28.902617      192.68411    
  11489000   160960.84      299.16229      125.32491      5349.5841     -2612.8061      2736.778       0.90804056     0              0              0              28.902617      28.902617      192.68411    
  11490000   160960.84      298.23736      731.23074      5333.0446     -2595.8837      2737.1609      0.90804056     0              0              0              28.902617      28.902617      192.68411    
  11491000   160960.84      296.47352      513.7547       5301.5037     -2564.5111      2736.9927      0.90804056     0              0              0              28.902617      28.902617      192.68411    
  11492000   160960.84      300.34292      494.63081      5370.696      -2634.2132      2736.4828      0.90804056     0              0              0              28.902617      28.902617      192.68411    
  11493000   160960.84      299.43653      166.43496      5354.4879     -2617.8232      2736.6647      0.90804056     0              0              0              28.902617      28.902617      192.68411    
  11494000   160960.84      298.58159      644.46478      5339.2        -2602.3336      2736.8663      0.90804056     0              0              0              28.902617      28.902617      192.68411    
  11495000   160960.84      298.37505      295.82788      5335.5066     -2598.6977      2736.8089      0.90804056     0              0              0              28.902617      28.902617      192.68411    
  11496000   160960.84      301.55487     -95.89618       5392.3678     -2655.9044      2736.4634      0.90804056     0              0              0              28.902617      28.902617      192.68411    
  11497000   160960.84      299.86735     -291.70286      5362.1918     -2625.3738      2736.818       0.90804056     0              0              0              28.902617      28.902617      192.68411    
  11498000   160960.84      298.85406     -480.62504      5344.0723     -2607.0225      2737.0498      0.90804056     0              0              0              28.902617      28.902617      192.68411    
  11499000   160960.84      300.1035       19.660864      5366.4146     -2629.5409      2736.8737      0.90804056     0              0              0              28.902617      28.902617      192.68411    
  11500000   160960.84      294.26529      155.15333      5262.0165     -2525.2067      2736.8098      0.90804056     0              0              0              28.902617      28.902617      192.68411    
  11501000   160960.84      300.13374      436.41637      5366.9554     -2630.3381      2736.6173      0.90804056     0              0              0              28.902617      28.902617      192.68411    
  11502000   160960.84      294.86359     -472.91587      5272.7152     -2535.8079      2736.9073      0.90804056     0              0              0              28.902617      28.902617      192.68411    
  11503000   160960.84      300.47382      751.75505      5373.0366     -2636.2215      2736.8151      0.90804056     0              0              0              28.902617      28.902617      192.68411    
  11504000   160960.84      299.0507       485.98476      5347.5886     -2610.8501      2736.7385      0.90804056     0              0              0              28.902617      28.902617      192.68411    
  11505000   160960.84      301.62231      524.42496      5393.5738     -2657.039       2736.5348      0.90804056     0              0              0              28.902617      28.902617      192.68411    
  11506000   160960.84      296.65993      99.57587       5304.8371     -2567.9988      2736.8383      0.90804056     0              0              0              28.902617      28.902617      192.68411    
  11507000   160960.84      298.54464      786.98751      5338.5392     -2601.737       2736.8022      0.90804056     0              0              0              28.902617      28.902617      192.68411    
  11508000   160960.84      300.33762      389.04473      5370.6011     -2633.723       2736.8781      0.90804056     0              0              0              28.902617      28.902617      192.68411    
  11509000   160960.84      299.47278     -854.73904      5355.1362     -2618.2148      2736.9214      0.90804056     0              0              0              28.902617      28.902617      192.68411    
  11510000   160960.84      296.97633     -51.938115      5310.495      -2573.9087      2736.5863      0.90804056     0              0              0              28.902617      28.902617      192.68411    
Loop time of 2188.14 on 36 procs for 500000 steps with 6000 atoms

Performance: 9.871 ns/day, 2.431 hours/ns, 228.505 timesteps/s, 1.371 Matom-step/s
99.2% CPU use with 36 MPI tasks x no OpenMP threads

MPI task timing breakdown:
Section |  min time  |  avg time  |  max time  |%varavg| %total
---------------------------------------------------------------
Pair    | 316.11     | 337.74     | 368.14     |  70.3 | 15.44
Bond    | 2.6373     | 2.8014     | 2.9928     |   6.4 |  0.13
Kspace  | 1488.3     | 1538.4     | 1568.8     |  45.5 | 70.31
Neigh   | 3.556      | 3.7251     | 3.9055     |   5.3 |  0.17
Comm    | 258.71     | 280.16     | 300.03     |  60.1 | 12.80
Output  | 0.035521   | 0.04293    | 0.05269    |   2.0 |  0.00
Modify  | 0.91414    | 0.98398    | 1.0957     |   4.3 |  0.04
Other   |            | 24.28      |            |       |  1.11

Nlocal:        166.667 ave         184 max         147 min
Histogram: 1 3 2 4 3 8 7 4 2 2
Nghost:        4430.58 ave        4548 max        4284 min
Histogram: 3 2 2 4 2 6 2 7 6 2
Neighs:        43883.7 ave       49357 max       38738 min
Histogram: 2 2 4 8 4 2 7 2 3 2

Total # of neighbors = 1579813
Ave neighs/atom = 263.30217
Ave special neighs/atom = 2
Neighbor list builds = 2487
Dangerous builds = 0

restart         1000000 restart_${NAME}.1 restart_${NAME}.2
restart         1000000 restart_CO2.1 restart_${NAME}.2
restart         1000000 restart_CO2.1 restart_CO2.2

write_data      ${NAME}_cuboid.data
write_data      CO2_cuboid.data
System init for write_data ...
PPPM initialization ...
  using 12-bit tables for long-range coulomb (../kspace.cpp:342)
  G vector (1/distance) = 0.26860453
  grid = 32 32 128
  stencil order = 5
  estimated absolute RMS force accuracy = 0.00039160846
  estimated relative force accuracy = 1.1793172e-06
  using double precision KISS FFT
  3d grid and FFT values/proc = 14079 4096
Generated 1 of 1 mixed pair_coeff terms from arithmetic mixing rule

quit
