LAMMPS data file via write_data, version 2 Aug 2023, timestep = 11510000, units = real

6000 atoms
2 atom types
4000 bonds
1 bond types
2000 angles
1 angle types

0 28.9026169083931 xlo xhi
0 28.9026169083931 ylo yhi
0 192.68411272262097 zlo zhi

Masses

1 15.9994
2 12.0107

Pair Coeffs # lj/cut/coul/long

1 0.156989 3.05
2 0.0536545 2.8

Bond Coeffs # harmonic

1 1028.27 1.16

Angle Coeffs # harmonic

1 55.96 180

Atoms # full

2065 689 1 -0.35 5.201532830663098 5.442137657942611 3.854850430872616 1 -2 0
4373 1458 2 0.7 1.7355769353345072 7.111709434264145 2.1374689487115197 -2 -3 -5
4374 1458 1 -0.35 1.9832406793535513 7.717911727681501 3.0828600344135157 -2 -3 -5
4372 1458 1 -0.35 1.4677327762012111 6.527172074951843 1.1632593206824131 -2 -3 -5
2066 689 2 0.7 5.946895592607042 6.331446421822767 4.058242882582788 1 -2 0
4357 1453 1 -0.35 9.12299031694883 1.8870973855575643 4.016135938317749 0 -2 3
2067 689 1 -0.35 6.783878521878861 7.105191916619185 4.143780843755847 1 -2 0
2878 960 1 -0.35 5.470481821833105 2.510980568952563 5.910104896627984 -6 -1 1
5275 1759 1 -0.35 7.282056474388486 2.6469810734453025 1.8908014916612779 0 -5 3
916 306 1 -0.35 9.119827549642661 0.29554984072973456 0.5008073638043555 1 2 0
2879 960 2 0.7 4.671806433434045 2.3415062180887642 6.760237572636997 -6 -1 1
5276 1759 2 0.7 6.324852008290761 2.3799859127291776 2.474823638366219 0 -5 3
5277 1759 1 -0.35 5.33275970760882 2.2196984617613698 3.0154825342072535 0 -5 3
4075 1359 1 -0.35 7.587559896409926 9.046046909913914 7.842415063140702 1 1 1
1936 646 1 -0.35 8.06841854858802 6.347226321567456 1.7461304042724637 2 -1 2
1937 646 2 0.7 9.228679698868623 6.458511240916167 1.899601859612941 2 -1 2
3786 1262 1 -0.35 2.298216540974627 2.2023978498191434 2.6303202357640365 3 -3 2
3785 1262 2 0.7 2.4811408525124587 1.894711219173357 3.7564203042169586 3 -3 2
3784 1262 1 -0.35 2.6238382379942404 1.555383544243873 4.842947571234173 3 -3 2
2069 690 2 0.7 4.5972498979170755 5.5658788424199495 0.777163807514246 1 -4 -1
2070 690 1 -0.35 4.646928335769471 6.582035315291972 1.3671349389876817 1 -4 -1
2880 960 1 -0.35 3.8924192768060037 2.1751549235842647 7.6165834645047426 -6 -1 1
43 15 1 -0.35 2.511704870597268 4.404738189803247 5.1175214921357925 -2 0 1
2874 958 1 -0.35 9.44380554750189 7.074216400466289 5.324762146155006 0 -1 5
5592 1864 1 -0.35 5.727563919463421 0.8793806307538264 18.435583838575074 -2 -7 -1
2957 986 2 0.7 4.342001752710021 1.8361895231365095 14.95933315219062 3 -5 2
5615 1872 2 0.7 4.160290339510646 6.513783379287473 7.694937839770509 2 2 3
5616 1872 1 -0.35 5.2249672413272625 6.356742079754803 7.288897699398012 2 2 3
4076 1359 2 0.7 7.049610050773153 8.93265719582183 8.875611754733582 1 1 1
4924 1642 1 -0.35 6.249076654640078 6.7911347741028365 47.549080868982344 3 -2 2
2904 968 1 -0.35 1.077651164937111 6.081618799393403 13.582212999426803 -5 0 0
5614 1872 1 -0.35 3.141097782957172 6.856859242075421 8.153273113977399 2 2 3
2902 968 1 -0.35 3.393525038764957 6.366108083391089 13.491753506257275 -5 0 0
5100 1700 1 -0.35 5.9612033680485705 1.186910952410071 10.558709798427005 0 -4 0
4860 1620 1 -0.35 6.023495876584271 3.7768307416368767 12.815330204928438 1 -2 2
4859 1620 2 0.7 5.730805720068342 4.47499636953066 11.96535905798425 1 -2 2
4858 1620 1 -0.35 5.337478161337587 5.128682951720294 11.059912608164714 1 -2 2
4077 1359 1 -0.35 6.638388305271596 8.848757162393927 9.984991865806562 1 1 1
1329 443 1 -0.35 8.104040620767437 5.970616864764929 10.941305883400084 3 0 -5
2219 740 2 0.7 0.22657784374809958 1.3162139217984032 9.442305728773823 -1 0 2
2323 775 1 -0.35 9.059640545331563 6.221412323979754 29.533938527385423 -7 2 -1
4113 1371 1 -0.35 0.47725506148358565 5.5560483564681675 18.81453649770882 1 -3 0
44 15 2 0.7 1.477507067001866 4.790950551180419 5.537370956304217 -2 0 1
5099 1700 2 0.7 4.821769510134682 1.482800315967528 10.70283491028089 0 -4 0
2360 787 2 0.7 7.763219127320938 4.359214932011972 7.92276097353983 6 -3 -1
2361 787 1 -0.35 8.427402664901331 5.158042022977537 7.424565396586504 6 -3 -1
5098 1700 1 -0.35 3.7204161762173156 1.765909005796444 10.94749340428449 0 -4 0
2903 968 2 0.7 2.247569138999521 6.179992991445029 13.593503895414187 -5 0 0
2220 740 1 -0.35 0.4563730169379742 2.1485867642949756 10.222279200673139 -1 0 2
2359 787 1 -0.35 7.15210494214053 3.5639712151948344 8.486738869409168 6 -3 -1
2958 986 1 -0.35 3.226652321248869 2.152148763826737 14.960238831435712 3 -5 2
4999 1667 1 -0.35 9.322362933668613 2.3315822853437136 11.884093667270053 0 -5 -4
1370 457 2 0.7 6.053948196084569 7.194236766359663 16.237610420822033 1 -2 1
1371 457 1 -0.35 6.01505782654788 8.310213010837337 15.946007111148463 1 -2 1
2956 986 1 -0.35 5.432591519234997 1.5035129384489003 15.024892163509154 3 -5 2
3036 1012 1 -0.35 8.864795311063398 1.6007144507843394 23.97705368809371 -4 -6 1
5408 1803 2 0.7 7.672584875514976 8.895068841234165 21.77420162454199 1 3 4
4232 1411 2 0.7 9.302842726907443 1.677979664644743 46.661511588946915 -1 4 -2
3974 1325 2 0.7 2.3089261188315295 8.16860368713805 17.077799134599562 -2 -2 1
3973 1325 1 -0.35 1.5693692571510622 7.904173091491571 16.250099711910522 -2 -2 1
5134 1712 1 -0.35 4.358911607396494 4.426407578954323 19.412873651830335 -5 -2 -2
2494 832 1 -0.35 3.586385180788506 3.7645772275614346 47.87444564380512 0 -1 1
1369 457 1 -0.35 6.033303301486115 6.051198912858878 16.550833129199923 1 -2 1
5409 1803 1 -0.35 6.68070237843687 9.403962972649502 21.970911507448495 1 3 4
547 183 1 -0.35 3.5866442241735745 3.36523846320336 22.413922577817367 5 -1 0
5136 1712 1 -0.35 3.260366520240006 5.3411708936074405 17.588878665745572 -5 -2 -2
5135 1712 2 0.7 3.794620692752568 4.85430739885445 18.500240526955515 -5 -2 -2
4921 1641 1 -0.35 6.972829270044023 8.99352851438005 42.51218965618525 2 1 1
549 183 1 -0.35 4.599503374035628 1.8754391264128811 20.9490889392798 5 -1 0
548 183 2 0.7 4.057105341864991 2.568688283009487 21.68967345366618 5 -1 0
1951 651 1 -0.35 8.610489392473642 5.189492381812872 17.15206099039682 1 1 -3
33 11 1 -0.35 7.461612761198152 4.106302102253696 22.497300022573093 -2 3 2
1952 651 2 0.7 8.38168079803042 4.115267035138788 17.46988507559524 1 1 -3
32 11 2 0.7 7.652650582038423 4.555522099462364 21.448921497260496 -2 3 2
31 11 1 -0.35 7.802192399873799 5.010187385414315 20.40534405242642 -2 3 2
4271 1424 2 0.7 4.729942807310405 7.118515303276593 21.726541655592982 6 4 -2
1953 651 1 -0.35 8.16063555120299 3.046560180459561 17.855925217965225 1 1 -3
2324 775 2 0.7 8.770387155327919 6.837724217440295 28.607201572576372 -7 2 -1
3975 1325 1 -0.35 2.9978062409191506 8.464209486201215 17.964767236677922 -2 -2 1
4270 1424 1 -0.35 5.6895629684134565 6.650008709941681 22.231553100604565 6 4 -2
4272 1424 1 -0.35 3.9163928630820033 7.704822196791764 21.18481979202441 6 4 -2
4839 1613 1 -0.35 1.3529699359530356 5.1132241003425385 22.025576960136384 -2 -5 2
4838 1613 2 0.7 1.7685813584460028 5.452329422792971 23.04160937763779 -2 -5 2
5407 1803 1 -0.35 8.676009012352164 8.287068859677404 21.56247824702178 1 3 4
3578 1193 2 0.7 6.5770938345234775 0.43942158299135514 38.539319033321675 4 1 1
5837 1946 2 0.7 8.772310798823307 0.7167816673824332 31.282117666267677 4 3 -4
3653 1218 2 0.7 0.3402739668814468 5.122754884417685 31.250546104613473 4 4 2
1455 485 1 -0.35 3.5798182264685123 0.5852542634986291 26.57710230926817 1 -2 1
5110 1704 1 -0.35 6.949826080203202 5.63516728675738 25.86157962610606 -2 1 0
1328 443 2 0.7 9.060000114686138 6.5785417236438555 10.981432499157552 3 0 -5
5112 1704 1 -0.35 6.654950927262949 3.427800970736504 26.354697969332378 -2 1 0
292 98 1 -0.35 3.7227835051934197 3.7696043473041145 25.662431682768965 0 1 5
5111 1704 2 0.7 6.774153572095824 4.544253949833609 26.04593905178908 -2 1 0
293 98 2 0.7 2.6898364981426854 3.292462947574567 25.460039166607213 0 1 5
294 98 1 -0.35 1.6850808791224854 2.7737459645113103 25.19618482463255 0 1 5
520 174 1 -0.35 6.067002264442921 8.122649030011651 29.89170136337585 3 -5 -2
2734 912 1 -0.35 1.5437537142784603 2.321108310633347 30.40707590820465 0 2 0
521 174 2 0.7 5.105873772672463 8.28477955279605 29.25188981557515 3 -5 -2
5603 1868 2 0.7 6.168157349653291 0.9842219245636957 29.260993964636608 -5 2 2
2592 864 1 -0.35 0.033423422287224724 5.864148093814559 47.052527996477174 2 0 3
522 174 1 -0.35 4.182509919365619 8.480678825307619 28.57852630697296 3 -5 -2
2528 843 2 0.7 2.3107200881139973 4.80021965977079 42.132373691576646 1 0 -1
5604 1868 1 -0.35 6.7333850112672655 2.0132319522870707 29.228254800879 -5 2 2
4837 1613 1 -0.35 2.2195542487053785 5.740601695559314 24.04260075849461 -2 -5 2
277 93 1 -0.35 7.804882620651079 3.9052712812827015 32.23171371264904 2 4 3
1454 485 2 0.7 3.0192229762406613 0.0019085301059543294 27.395386274483833 1 -2 1
3035 1012 2 0.7 8.529706954729459 1.0621838567035906 24.96157417253169 -4 -6 1
2735 912 2 0.7 1.7610740394892939 2.031573005202878 31.502071337981615 0 2 0
3652 1218 1 -0.35 0.14213405369949328 4.467449235137711 32.21319175711628 4 4 2
3654 1218 1 -0.35 0.4565056723487317 5.830715271477311 30.372948477071095 4 4 2
618 206 1 -0.35 1.3591290597545835 6.461416649287592 36.089916407408296 0 -6 1
617 206 2 0.7 1.1953805223225848 6.490898710277539 37.22218318805319 0 -6 1
3896 1299 2 0.7 3.522378491900263 0.6943953396742607 34.72930635603157 4 -1 2
3577 1193 1 -0.35 6.480633754085647 1.5705842434760153 38.89944772161853 4 1 1
3895 1299 1 -0.35 3.025283939037684 1.475866313033052 35.38721254576758 4 -1 2
5460 1820 1 -0.35 3.529872121059743 8.535033359068741 34.38865335617562 -1 -5 -1
5458 1820 1 -0.35 2.815743972445709 7.08093980050349 32.74133974430152 -1 -5 -1
5459 1820 2 0.7 3.1553767811668534 7.788414945310021 33.577669618702735 -1 -5 -1
3380 1127 2 0.7 0.003166552908346887 0.9501762437827798 24.41476447493067 2 1 -2
3228 1076 1 -0.35 4.385704819777951 4.013586863453527 32.03431485623945 -2 -1 5
3718 1240 1 -0.35 3.383321089272148 7.988469059755205 40.590893006777634 0 1 -1
3719 1240 2 0.7 3.6289584460097695 6.953432633596322 40.14098440350379 0 1 -1
3918 1306 1 -0.35 6.059397912593701 7.880329028853279 35.85330407004947 2 2 1
3227 1076 2 0.7 3.859488506816666 3.996772498257351 33.0431429688867 -2 -1 5
3226 1076 1 -0.35 3.3771385631526667 4.010381307264893 34.08098858143339 -2 -1 5
279 93 1 -0.35 7.189811711026822 5.672866808735814 33.58550345243932 2 4 3
3916 1306 1 -0.35 8.334761478587302 7.434156945366518 35.53885463462879 2 2 1
3917 1306 2 0.7 7.168080986979314 7.59810525396085 35.67684358778372 2 2 1
2464 822 1 -0.35 7.413536254966881 4.203769574192461 37.35313881409565 9 4 3
2465 822 2 0.7 6.734235323061981 4.050775123772005 36.39587082979459 9 4 3
2466 822 1 -0.35 6.3383866672536895 3.7834342684287225 35.34467039075889 9 4 3
3720 1240 1 -0.35 3.9373157971386354 5.947028171071837 39.65289909472657 0 1 -1
278 93 2 0.7 7.532402263038042 4.832165804772453 32.87335809276712 2 4 3
5591 1864 2 0.7 6.745439212816947 0.28367321527824957 18.47995628679084 -2 -7 -1
5226 1742 1 -0.35 1.0134315420734488 1.499569227662761 38.13905893807195 -1 2 -4
496 166 1 -0.35 8.670461971687347 9.122986047673788 39.32994199966315 3 6 1
2736 912 1 -0.35 1.8272459690134333 1.8043842092523936 32.63214532086989 0 2 0
5224 1742 1 -0.35 1.8361720704034241 2.814401125244416 39.77774554932094 -1 2 -4
5225 1742 2 0.7 1.3933433623696938 2.1219541809281712 38.99380445963859 -1 2 -4
616 206 1 -0.35 1.172419188326243 6.486626857124062 38.38665468252684 0 -6 1
4197 1399 1 -0.35 0.23338605369451906 1.1453634762884644 47.83309948950347 -1 1 -2
4231 1411 1 -0.35 8.71890686354918 2.4013380929981674 45.943707593508506 -1 4 -2
2527 843 1 -0.35 1.372452378436972 5.4368976807831535 41.80388108207668 1 0 -1
1218 406 1 -0.35 3.6035420562337066 6.343274409513875 45.800178906561186 0 3 2
387 129 1 -0.35 7.310185111069504 5.599827479701369 41.18682202740877 3 0 3
1217 406 2 0.7 3.6726041782704897 7.312848509049644 46.41160560198728 0 3 2
3229 1077 1 -0.35 0.7017162135212519 9.207080838234376 43.88250357283412 -1 2 -1
1216 406 1 -0.35 3.8834480650082654 8.336882055039915 46.91215138516514 0 3 2
1443 481 1 -0.35 8.950342106824747 1.1883611449076301 40.839460869885066 2 1 0
4926 1642 1 -0.35 6.808211975580578 7.551948466200201 45.40731506768385 3 -2 2
3379 1127 1 -0.35 0.5864724675478031 0.11041606792637798 24.957416030305275 2 1 -2
322 108 1 -0.35 9.183619682445363 5.396778616921815 45.81598894954212 3 1 3
3240 1080 1 -0.35 7.080730937125561 8.96465735378499 32.94219267666379 -3 2 0
4925 1642 2 0.7 6.554282578545954 7.169184673966676 46.49083901656827 3 -2 2
2529 843 1 -0.35 3.246519086762786 4.2418957566243005 42.462990626453525 1 0 -1
5608 1870 1 -0.35 1.9403641969849466 8.852447886602791 25.286244618418984 2 -4 2
385 129 1 -0.35 9.589974154631612 5.319481640378785 41.343715173089294 3 0 3
386 129 2 0.7 8.475406190910762 5.4404102044866995 41.23889899097917 3 0 3
783 261 1 -0.35 5.404982670630792 0.3875589312483142 41.155775693532746 1 5 2
2325 775 1 -0.35 8.51438449429999 7.4744682650938135 27.666732303381785 -7 2 -1
3034 1012 1 -0.35 8.00112125414403 0.593792479075165 25.92688307926543 -4 -6 1
5609 1870 2 0.7 2.8138714209243356 9.056309536958763 24.59291546299056 2 -4 2
5838 1946 1 -0.35 7.755204820867434 0.9090131926352064 31.808956504222383 4 3 -4
45 15 1 -0.35 0.4476837405954619 5.199896805106973 5.99288839732861 -2 0 1
5827 1943 1 -0.35 8.295891445522122 9.50302059216675 2.3955868555445563 -1 -1 0
5610 1870 1 -0.35 3.68767211880556 9.102693354921785 23.798763495842508 2 -4 2
4922 1641 2 0.7 6.1733649575603184 9.492227691359085 41.828735270244216 2 1 1
782 261 2 0.7 5.479672850456363 0.07397572987307299 42.245566532619016 1 5 2
2495 832 2 0.7 3.8773398588500294 2.670715930464025 48.13535731743347 0 -1 1
1308 436 1 -0.35 2.967748191089671 1.504978553723535 0.0682666809948671 2 -2 -2
2068 690 1 -0.35 4.554010581490165 4.578686887211871 0.11711102244433391 1 -4 -1
2496 832 1 -0.35 4.048144483093427 1.604193053726234 48.47433537602952 0 -1 1
1983 661 1 -0.35 1.6199357581565375 7.103952913489648 49.182857248512015 1 1 -5
5730 1910 1 -0.35 3.8573427139176424 1.5115726156520168 52.71264171849763 0 -2 6
5729 1910 2 0.7 3.546517855222213 0.4306412480068498 52.466663307114615 0 -2 6
5030 1677 2 0.7 4.166624881839406 9.58233278559763 61.82342903977575 2 1 3
5096 1699 2 0.7 1.0962547995843255 4.14712409401244 52.68093265503116 3 -3 -4
4814 1605 2 0.7 1.4124095954220768 0.29657427985015516 67.321669309327 0 -1 0
2007 669 1 -0.35 7.02330325893678 0.9636827142310419 51.41620679244245 5 -5 0
1982 661 2 0.7 0.769997989739034 7.314357456981385 49.94118031898377 1 1 -5
2130 710 1 -0.35 0.8798345431587438 7.469531133653891 91.40848462412924 4 2 -3
1272 424 1 -0.35 5.614062235707485 4.613358866563019 51.02869323776208 -1 -1 -4
5865 1955 1 -0.35 5.500403730306814 8.227294560457413 50.80713857120209 -1 1 -1
5095 1699 1 -0.35 1.1884373558008228 3.3166370384020905 53.4571216437817 3 -3 -4
4069 1357 1 -0.35 3.3750376832580424 6.558079057409155 89.02062502990718 2 2 -2
4196 1399 2 0.7 0.796905653507893 1.5942028912758877 48.76775596381883 -1 1 -2
1271 424 2 0.7 5.53825994714507 4.602180258871721 52.201674401709184 -1 -1 -4
1270 424 1 -0.35 5.483159661437939 4.681586449767856 53.38312498549697 -1 -1 -4
5864 1955 2 0.7 6.2088178198688695 8.603831457296206 49.96382104693881 -1 1 -1
5863 1955 1 -0.35 7.055177015416824 9.02898363446326 49.25983302957727 -1 1 -1
2928 976 1 -0.35 2.676154459073496 1.6746972347915758 94.47101036842794 -2 6 -1
2010 670 1 -0.35 5.12495637153333 8.819753246117246 96.15073429684394 0 2 -4
336 112 1 -0.35 7.282942029647545 0.4325292053950379 55.77139261907942 0 1 -1
3396 1132 1 -0.35 0.0339668488991407 7.7089723263339 85.90754896510188 -5 -2 0
2457 819 1 -0.35 2.977608391020969 4.507667817709504 61.202892916761606 -1 1 2
4969 1657 1 -0.35 6.34709321548281 4.16905196185432 57.92471755928769 1 -1 -2
4970 1657 2 0.7 6.870027776891939 4.445034378449368 56.93132974492386 1 -1 -2
5486 1829 2 0.7 3.222935257703464 6.252682362470816 55.580483256328925 5 -2 0
140 47 2 0.7 4.839213219652669 2.001520701057175 59.523913291056274 2 5 3
141 47 1 -0.35 5.817095843426879 1.7885541851522186 60.121112123501156 2 5 3
2456 819 2 0.7 2.9312418838949483 5.493420086086248 60.629979733535905 -1 1 2
139 47 1 -0.35 3.9043115557453985 2.274237008145811 58.91081944790976 2 5 3
3958 1320 1 -0.35 7.854631978236828 3.653981398313177 62.92909372352616 1 2 -4
5485 1829 1 -0.35 4.1437160362413055 6.115518899229072 56.332401707470204 5 -2 0
4971 1657 1 -0.35 7.407553030955798 4.840303593669336 55.99638867316398 1 -1 -2
5487 1829 1 -0.35 2.368228262569073 6.44807981131222 54.85219951743031 5 -2 0
3959 1320 2 0.7 8.504127059184835 4.337838448330685 62.311275902398876 1 2 -4
2455 819 1 -0.35 2.8094332621889584 6.405317239217949 59.901400399949274 -1 1 2
4710 1570 1 -0.35 1.594413149873459 3.0193020378783078 56.665699037973525 2 -4 0
5031 1677 1 -0.35 4.804777095701233 9.33980903041397 62.75478674803205 2 1 3
3960 1320 1 -0.35 9.279190418034732 4.968301166918204 61.78340495357693 1 2 -4
4709 1570 2 0.7 1.153630529558603 2.754797133889675 57.67890214112611 2 -4 0
4708 1570 1 -0.35 0.6882810755030915 2.319514593946868 58.64286154008214 2 -4 0
5662 1888 1 -0.35 0.7101181747348456 8.51886425779602 66.56787702208287 1 -1 1
1001 334 2 0.7 8.698891968471209 1.5502668975376943 66.37877112673094 1 4 1
5663 1888 2 0.7 0.30591431321375273 8.1187724800139 65.54532394772826 1 -1 1
1482 494 1 -0.35 4.265779569662926 5.543249663991131 63.550449411483505 -4 -2 5
59 20 2 0.7 5.525841049243113 1.688248351043369 68.65690610431024 2 0 0
3006 1002 1 -0.35 1.250196937085472 1.6863959205563421 63.8674696545521 -1 4 1
1481 494 2 0.7 4.406833343591369 4.418687298791437 63.898513529479246 -4 -2 5
1480 494 1 -0.35 4.580664265613121 3.340602976469695 64.30877386805908 -4 -2 5
1522 508 1 -0.35 1.2356469513705064 6.861491689425056 96.21751624592777 1 1 2
5682 1894 1 -0.35 2.7818276361931202 5.286652390192323 73.24366390475622 -2 2 2
5302 1768 1 -0.35 5.363826475041957 7.67569882487421 66.28482571881528 3 -1 -5
3004 1002 1 -0.35 0.7888376164535486 3.2438235500880537 65.47621870976975 -1 4 1
3005 1002 2 0.7 1.0188432013753774 2.4780184678062125 64.6492322038146 -1 4 1
3260 1087 2 0.7 2.548309701606526 4.889969238146177 68.20781664657643 0 1 -2
3259 1087 1 -0.35 3.184627021297225 5.218229900586099 67.3104079369282 0 1 -2
4762 1588 1 -0.35 7.71218390328566 5.895008101500217 65.67001627915212 3 2 -3
3261 1087 1 -0.35 1.9628095600973556 4.397691076756509 69.11314159693188 0 1 -2
4763 1588 2 0.7 8.792064681215939 6.2996058936272545 65.85818394421631 3 2 -3
283 95 1 -0.35 8.491163293419483 0.3639667287546425 70.38124530984177 2 -2 -1
5303 1768 2 0.7 4.554886898675001 8.379487468939548 66.71717034034619 3 -1 -5
1251 417 1 -0.35 8.351366398643826 9.160008131674594 64.05960050474353 1 2 0
1872 624 1 -0.35 4.560051399573363 1.8068718589989285 71.9731828913115 1 0 3
1002 334 1 -0.35 8.47628025611698 2.6868966028446835 66.374974266126 1 4 1
2580 860 1 -0.35 0.5685176135939537 7.259813069077312 69.36993241699179 2 -2 -1
3167 1056 2 0.7 5.560245173041517 7.155349865136835 72.73643541223778 1 -2 0
58 20 1 -0.35 5.179325208577406 2.7027919095603865 69.13137934062918 2 0 0
3168 1056 1 -0.35 4.540002777982478 7.367005924358591 72.25628611717713 1 -2 0
1871 624 2 0.7 3.5013081696456068 1.8773427022339202 72.35769645544923 1 0 3
5015 1672 2 0.7 0.017476583152561176 4.448244730391187 79.18448185564932 5 -1 0
1645 549 1 -0.35 7.201603265865814 4.972884570300975 71.35097991994473 5 2 2
5304 1768 1 -0.35 3.811335263176082 9.033965163089777 67.27626632331028 3 -1 -5
1179 393 1 -0.35 9.254819317021665 9.301479253021807 88.79018711500007 -3 -4 -4
60 20 1 -0.35 5.801400650885462 0.7547194179091755 68.06280125088018 2 0 0
1000 334 1 -0.35 8.979760198793327 0.428950758344201 66.48436170476369 1 4 1
5627 1876 2 0.7 0.9053129077007548 0.6622189027494968 78.43465373366759 0 0 3
5626 1876 1 -0.35 0.4337901148700696 1.6598504444742053 78.80317941816202 0 0 3
42 14 1 -0.35 6.422829375893674 7.105587236681842 91.27656757782349 2 4 -2
4070 1357 2 0.7 3.4287066591035398 7.352080874840779 88.22012940577979 2 2 -2
3166 1056 1 -0.35 6.579463714946852 6.9592265039871215 73.29324092803724 1 -2 0
5681 1894 2 0.7 1.92000942690487 5.949746025771717 72.83151425408738 -2 2 2
5016 1672 1 -0.35 1.05419217455527 4.508691189725327 78.64643741225906 5 -1 0
1870 624 1 -0.35 2.3541985370329312 1.9606014412070905 72.63974207397631 1 0 3
2380 794 1 -0.35 3.4885126937686146 5.000606099307309 75.903181022317 -3 1 -3
3903 1301 1 -0.35 7.973099008579137 4.324040530335034 75.26192267011025 0 3 -3
3902 1301 2 0.7 8.035466279692631 3.6644074325590115 74.30726321778526 0 3 -3
5414 1805 2 0.7 6.95675945151074 3.1755281958967 77.82337801186131 2 2 -1
1181 394 2 0.7 2.8716070458189225 8.874129150856268 75.44833587487864 -4 1 2
4195 1399 1 -0.35 1.3158192285604229 2.0483266983579993 49.71990852813793 -1 1 -2
1180 394 1 -0.35 3.7334502700987784 8.336488974236595 74.89740098563638 -4 1 2
5413 1805 1 -0.35 7.58671417529384 2.179458989022179 77.91716354087788 2 2 -1
5415 1805 1 -0.35 6.420015675427467 4.192673857559368 77.60842509033994 2 2 -1
3901 1301 1 -0.35 8.050806216300062 3.1004290415975393 73.29298509288687 0 3 -3
2381 794 2 0.7 4.351844198423668 4.447731105840059 75.31719014147944 -3 1 -3
2382 794 1 -0.35 5.247235546229359 3.896179582957605 74.76528428525488 -3 1 -3
4120 1374 1 -0.35 4.7457021653557465 8.15527032910698 77.72062668642403 1 2 -1
4121 1374 2 0.7 4.612238904084891 7.72870725819223 78.79376373866013 1 2 -1
4122 1374 1 -0.35 4.540349870318418 7.1857295263438905 79.80746994820444 1 2 -1
5680 1894 1 -0.35 1.1387828521493844 6.5986511168387345 72.26906300071437 -2 2 2
4515 1505 1 -0.35 1.2262526616448535 6.569541819873985 81.30965490337559 3 5 3
5976 1992 1 -0.35 1.0692229038102894 0.8167743816204673 84.05319257842629 0 2 -2
5524 1842 1 -0.35 8.368604731451128 2.3740977346063254 84.19971956653198 -2 1 -2
5525 1842 2 0.7 9.427215586131206 1.8781976480853368 84.09058810796765 -2 1 -2
1008 336 1 -0.35 5.79164369109354 2.6644103135875206 87.63249858611466 4 1 2
1007 336 2 0.7 4.999089266709342 2.83147100728248 86.79731336666096 4 1 2
55 19 1 -0.35 3.275661878270367 3.7607639322050748 90.40535601385753 2 1 1
1977 659 1 -0.35 6.397782529522616 7.82191538872909 84.09330620438662 -4 -1 5
4514 1505 2 0.7 1.1911024314710434 7.505197677254653 81.93481121528366 3 5 3
4513 1505 1 -0.35 1.2193232225954507 8.516689717585322 82.53228992084576 3 5 3
5238 1746 1 -0.35 7.45657959677174 2.135321445193501 80.9911516681189 -2 0 0
4583 1528 2 0.7 9.629514388141466 5.321209900183791 95.05561037928196 -2 0 -3
5481 1827 1 -0.35 2.0793512561215124 4.432186476870517 84.37212412846331 0 1 -1
5480 1827 2 0.7 1.1426332458470791 4.548065720243161 85.05626244252784 0 1 -1
1975 659 1 -0.35 4.210586553615525 7.6557929113868255 84.79740559227534 -4 -1 5
1976 659 2 0.7 5.301220462299842 7.743528879325636 84.47643532460036 -4 -1 5
3879 1293 1 -0.35 9.304765256259552 7.984705293751364 83.22135871227977 -5 0 0
2262 754 1 -0.35 8.703403791953173 4.663051470026497 86.7264932148371 2 6 1
2261 754 2 0.7 7.733282897954834 5.243539847436154 86.44777098590731 2 6 1
3878 1293 2 0.7 9.065373791650225 7.66385264047047 82.11184576984556 -5 0 0
5237 1746 2 0.7 7.163033425988733 1.086318849213555 81.31198202613128 -2 0 0
3877 1293 1 -0.35 8.77197113745231 7.316975608548293 81.0332169531967 -5 0 0
5479 1827 1 -0.35 0.14626560560517413 4.651181442727551 85.64390991043744 0 1 -1
1006 336 1 -0.35 4.242422372768927 3.0068637653378674 85.93701805409783 4 1 2
2260 754 1 -0.35 6.666016619087924 5.701077542930831 86.26671553683458 2 6 1
5975 1992 2 0.7 0.4207257379322411 0.4182632305638198 84.94738177123867 0 2 -2
2136 712 1 -0.35 3.7580208179868335 0.938853268525319 76.19051983051264 4 3 2
4713 1571 1 -0.35 7.478309882465056 1.8421732768489092 93.25575003768203 -1 -1 -2
4712 1571 2 0.7 6.620556521343361 2.448600584628053 93.78387826879441 -1 -1 -2
4711 1571 1 -0.35 5.787559577641457 3.1743360511037704 94.17868338710738 -1 -1 -2
2129 710 2 0.7 0.7960352845581106 8.597562935385122 91.69141276959303 4 2 -3
57 19 1 -0.35 1.967615347314877 2.1818733749977475 89.29613526024217 2 1 1
3790 1264 1 -0.35 4.123897173849476 0.820938303135779 82.4295094927159 0 4 -4
56 19 2 0.7 2.534794257892703 3.0192647550756453 89.86390225201632 2 1 1
2927 976 2 0.7 2.37449997077229 1.7605742872727903 93.36779768491225 -2 6 -1
2926 976 1 -0.35 2.19974806800671 1.608179742733605 92.21983212394949 -2 6 -1
1523 508 2 0.7 1.8940018816218107 7.440339776086303 95.41512033323657 1 1 2
4071 1357 1 -0.35 3.595774757270273 8.061508715629463 87.29246661455399 2 2 -2
4792 1598 1 -0.35 9.016876482818557 0.9230046140156298 59.765567728032245 0 -2 1
5130 1710 1 -0.35 4.2675358056524315 9.062692054575063 54.179767579154955 7 1 2
1524 508 1 -0.35 2.544939090548655 8.100091572279686 94.6585873280282 1 1 2
4582 1528 1 -0.35 8.640298263131765 4.752936637368842 95.10117607749166 -2 0 -3
41 14 2 0.7 6.504109374419924 7.349988500883768 92.40038169850573 2 4 -2
40 14 1 -0.35 6.56631343456606 7.467850846749233 93.52403234533675 2 4 -2
1646 549 2 0.7 8.272126858679211 5.488677296602203 71.29501246368727 5 2 2
5097 1699 1 -0.35 0.9633752844798322 5.116475412594929 52.031046907599276 3 -3 -4
3427 1143 1 -0.35 8.09748320624299 9.156109705211394 55.12714755127049 -1 -2 0
4815 1605 1 -0.35 2.350750053108702 0.9563748318976083 67.34875896805582 0 -1 0
2135 712 2 0.7 3.3118836617442247 0.17885466511846543 75.4178850035004 4 3 2
822 274 1 -0.35 8.099054320639452 0.7300661295040003 75.45757112458743 -3 -2 4
821 274 2 0.7 8.328345239755613 0.17428160581409047 74.50284311018527 -3 -2 4
3791 1264 2 0.7 3.8933683992924455 0.09894500664151427 83.3336359441899 0 4 -4
1647 549 1 -0.35 9.302102398243598 6.031663061441735 71.30013321902076 5 2 2
1182 394 1 -0.35 2.0029248980929917 9.38175744703075 76.02837957704784 -4 1 2
1250 417 2 0.7 7.439965657888503 9.616274712270757 64.66795391621548 1 2 0
1194 398 1 -0.35 4.973233799534931 0.1283749323767367 57.56930286182543 0 0 0
2006 669 2 0.7 7.971439003886758 0.40473206764725234 51.040715167406056 5 -5 0
4205 1402 2 0.7 4.314491753708012 7.85334418693026 99.59046644355585 2 0 1
1712 571 2 0.7 1.0651464843391132 7.101398857644723 102.76717284160215 -2 2 -2
839 280 2 0.7 6.061381838904741 3.4616024787716912 100.12543053645838 1 2 0
840 280 1 -0.35 5.358005403110151 4.377727958598769 100.39962269922718 1 2 0
838 280 1 -0.35 6.892463777699332 2.736568421094628 99.76537951278472 1 2 0
627 209 1 -0.35 1.0489028501572506 8.71485086792143 138.56557849421466 4 2 -2
127 43 1 -0.35 4.818924571560441 6.236708771717814 102.87346483459436 1 0 0
128 43 2 0.7 6.000833462337759 6.173658919855612 102.79612981985036 1 0 0
129 43 1 -0.35 7.163638421888553 6.145923689316844 102.80332724542066 1 0 0
4206 1402 1 -0.35 5.194508851777022 7.878240704119668 100.32006522043109 2 0 1
4037 1346 2 0.7 9.376064511782912 0.09132879146877163 112.73135238677332 -1 0 3
1855 619 1 -0.35 3.446149474552323 4.466479613910794 97.2881505126742 0 3 0
4204 1402 1 -0.35 3.505650370496729 7.760783735778411 98.77629750588912 2 0 1
3556 1186 1 -0.35 7.5587772965152356 2.22644223156482 96.81475588695207 -3 -1 4
3557 1186 2 0.7 6.946551139018323 1.4139668456804226 97.33677237250336 -3 -1 4
5969 1990 2 0.7 3.1999982902320383 2.8934645346486576 102.96384005168169 -1 2 -4
5970 1990 1 -0.35 3.348918090391915 2.7168766529956256 101.84655401426751 -1 2 -4
2724 908 1 -0.35 9.14920413823961 4.196334673264919 102.55941273743731 1 -3 3
3439 1147 1 -0.35 8.248350181024335 5.9352846321582655 99.81258423213316 3 1 5
1711 571 1 -0.35 0.600193986808218 6.282550276230723 102.06962198904031 -2 2 -2
1713 571 1 -0.35 1.5244316322137277 7.8768633951985825 103.4828763299532 -2 2 -2
3440 1147 2 0.7 8.540029756786568 6.560153178340256 98.86127552475385 3 1 5
1029 343 1 -0.35 1.7497723044172773 0.36909283083563027 104.0882925337765 1 -2 1
1857 619 1 -0.35 2.373822694455536 4.786234193702048 99.35110758937562 0 3 0
1856 619 2 0.7 2.922116604014883 4.648688005690924 98.34693069473784 0 3 0
3441 1147 1 -0.35 8.748554692235778 7.052309286029419 97.81761200274443 3 1 5
2423 808 2 0.7 6.917610965907339 1.6592658097043673 104.67960815214818 -2 2 -2
5349 1783 1 -0.35 8.69034098634247 2.1477481365559665 110.66770330955741 -1 3 5
4694 1565 2 0.7 4.863920430240826 8.960168634142306 111.51649806017048 2 -6 0
2211 737 1 -0.35 2.8386262811198586 3.0030556073682546 108.52470903958205 0 2 -1
2210 737 2 0.7 2.2801149601543065 2.1115294417271406 108.02464553915364 0 2 -1
5348 1783 2 0.7 7.653395815276455 1.961254390947182 110.19398340632053 -1 3 5
5812 1938 1 -0.35 5.995065351980388 9.379620987817917 107.20111576905455 5 0 -2
1078 360 1 -0.35 2.881515242165504 3.8923683019515507 111.32376219972684 4 5 2
1080 360 1 -0.35 4.858160429737717 4.436807143504381 110.18072873799856 4 5 2
1736 579 2 0.7 4.110774621694367 6.532469416288724 106.51409095729348 -1 -4 5
5813 1938 2 0.7 6.801044006437922 9.248849925820217 106.39598531516368 5 0 -2
5814 1938 1 -0.35 7.612658887274284 9.079309879154703 105.59008688000861 5 0 -2
90 30 1 -0.35 0.3327518479254589 4.938909085374548 108.2857765798888 2 2 0
1735 579 1 -0.35 3.5991286644434513 7.5037638765992325 106.86423712170965 -1 -4 5
1737 579 1 -0.35 4.655966691925616 5.584020349568311 106.11934106987074 -1 -4 5
210 70 1 -0.35 7.085601616206739 6.279843179884093 109.06046308312705 -1 2 2
209 70 2 0.7 7.588621603844715 5.264464018422398 108.76444433855262 -1 2 2
5228 1743 2 0.7 9.136552153999416 8.100102355060589 115.26979468190923 -2 -1 -1
1079 360 2 0.7 3.876169762970273 4.14850448070961 110.71108059461433 4 5 2
5363 1788 2 0.7 8.662993711520834 8.314549333549856 110.57168067584901 3 8 0
5968 1990 1 -0.35 3.103593760184601 3.039532772491883 104.1381011722869 -1 2 -4
208 70 1 -0.35 8.04692626737644 4.227484337802383 108.59807694489292 -1 2 2
5362 1788 1 -0.35 8.131008070900162 9.186702630801596 109.96330740681924 3 8 0