LAMMPS data file via write_data, version 2 Aug 2023, timestep = 10000000, units = real

6000 atoms
2 atom types
4000 bonds
1 bond types
2000 angles
1 angle types

-0.5624685088199328 54.640804508794204 xlo xhi
-0.5624685088199328 54.640804508794204 ylo yhi
-0.5624685088199328 54.640804508794204 zlo zhi

Masses

1 15.9994
2 12.0107

Pair Coeffs # lj/cut/coul/long

1 0.156989 3.05
2 0.0536545 2.8

Bond Coeffs # harmonic

1 1028.27 1.16

Angle Coeffs # harmonic

1 55.96 180

Atoms # full

436 146 1 -0.35 5.576818927517629 4.573399018246287 8.697877024566427 0 2 2
437 146 2 0.7 5.276707638289314 5.258115330477462 7.7981129533898645 0 2 2
438 146 1 -0.35 4.9687781185402535 5.978324585315044 6.956488193843686 0 2 2
2508 836 1 -0.35 1.9614020947482946 1.931631877145633 6.831316172145847 4 -4 0
4204 1402 1 -0.35 1.0874066282322468 4.457729756502759 11.229800148296547 2 -1 2
1043 348 2 0.7 1.7439152573234167 7.005652804955224 -0.1709379508726207 -1 -3 3
2507 836 2 0.7 2.384443810474213 0.9921558220442512 6.2656555223000705 4 -4 0
4205 1402 2 0.7 0.5494003033287733 4.054884045481534 12.132015919057201 2 -1 2
4527 1509 1 -0.35 8.361188350616727 3.252588044815579 11.438311298456577 3 7 -4
4526 1509 2 0.7 8.400009703199695 3.8338508276612364 10.421390205647475 3 7 -4
1042 348 1 -0.35 1.198688832658065 7.449682062502198 0.7034685510523255 -1 -3 3
2624 875 2 0.7 6.7323842912430445 0.6903940412404059 10.706697702197298 -1 -3 -4
2892 964 1 -0.35 4.2510301925916005 2.7619259801433103 5.3207611840183455 3 -5 -1
4961 1654 2 0.7 0.12455858713118728 3.9271407031466774 4.436252715914812 0 -1 3
5226 1742 1 -0.35 8.148343525833576 7.6512821846033425 8.771700362545861 -1 1 -4
2891 964 2 0.7 4.602472401548629 2.505017195649673 4.249760149350794 3 -5 -1
4962 1654 1 -0.35 1.008606625195485 3.169660587583149 4.215288745535728 0 -1 3
807 269 1 -0.35 7.716025595051896 2.00403977323479 0.7193005327616522 0 4 0
2890 964 1 -0.35 4.884955909818739 2.1773161561431578 3.1692609864768313 3 -5 -1
2506 836 1 -0.35 2.830311019304169 0.08380075351802951 5.654515450559017 4 -4 0
4811 1604 2 0.7 8.214601388549532 8.21867519192166 3.4100506144999994 -1 -2 3
4812 1604 1 -0.35 8.014744015359645 7.679189269187889 2.419332323648138 -1 -2 3
4206 1402 1 -0.35 -0.11150086258592229 3.6251627594730884 13.029182778357761 2 -1 2
2625 875 1 -0.35 6.311124983038765 0.22495700227261817 11.689935367900494 -1 -3 -4
670 224 1 -0.35 1.8883636434666569 4.053721525518578 0.9862432201776827 1 -1 1
3340 1114 1 -0.35 1.8388859536402622 7.098087560884212 12.77842196959357 3 1 1
4920 1640 1 -0.35 1.0420806113659127 5.910273825877882 8.285541555977382 3 0 2
672 224 1 -0.35 0.5433910950333596 2.1822994995935168 1.2858591349420332 1 -1 1
4849 1617 1 -0.35 5.8716148790855325 0.3615836800648212 6.184904839247837 1 1 1
4850 1617 2 0.7 6.607400948802709 -0.45566065212460394 6.583414517237324 1 1 1
3976 1326 1 -0.35 2.8581960339656534 6.698007916149716 4.520239293886662 0 3 -1
3342 1114 1 -0.35 3.1151376566871516 6.983061283931833 10.823320477168968 3 1 1
3341 1114 2 0.7 2.468825984729896 7.095491397628739 11.818453637103802 3 1 1
671 224 2 0.7 1.1943713903734237 3.136537184977869 1.0672763064650699 1 -1 1
806 269 2 0.7 7.090342278261414 2.9744138448617843 0.7155443149021665 0 4 0
805 269 1 -0.35 6.571641757270099 3.983893582951227 0.7386123579149246 0 4 0
4525 1509 1 -0.35 8.545413446402584 4.4248389229903164 9.465797881942091 3 7 -4
993 331 1 -0.35 8.092784911227085 5.777040570168588 5.653109639279818 -2 -4 2
992 331 2 0.7 8.178463747497375 4.732657385498585 5.1605921116606295 -2 -4 2
991 331 1 -0.35 8.442775100378109 3.6932107972560635 4.689983709066404 -2 -4 2
3942 1314 1 -0.35 1.7863565396989554 -0.46697825777937757 1.890277212968769 3 0 3
4918 1640 1 -0.35 -0.30221938474218 4.0334213733534074 8.054024748428455 3 0 2
3977 1326 2 0.7 2.695086538525641 7.8390483984300126 4.71860854790809 0 3 -1
1082 361 2 0.7 6.756087368530726 8.439224657080288 11.844957609517472 -4 3 6
4919 1640 2 0.7 0.2956236104148374 5.044958076392673 8.186519952753065 3 0 2
2623 875 1 -0.35 7.047411537077558 1.095184994416869 9.663783976201126 -1 -3 -4
4132 1378 1 -0.35 0.36960947516673415 7.8621207754929365 6.264401195575824 1 -1 0
1083 361 1 -0.35 6.7871046724794954 7.470886647130273 12.448987602414444 -4 3 6
4266 1422 1 -0.35 5.237036730475826 4.732322981090191 12.944250175873218 -1 2 -5
4133 1378 2 0.7 -0.3777157667220621 8.330368687603315 7.048563867207948 1 -1 0
4431 1477 1 -0.35 6.227634028817729 -0.5332898152389873 -0.2603166090821887 2 1 2
4337 1446 2 0.7 9.840244109408003 0.14912964746078805 3.1577521085619136 -6 0 0
2745 915 1 -0.35 14.570416482706177 5.4386811914478885 -0.2440504390104501 -1 -1 -2
4338 1446 1 -0.35 8.70608643554476 -0.0631854361835229 3.165330013020988 -6 0 0
1073 358 2 0.7 11.005336108318259 0.9526149792716467 6.630720192098285 1 2 -1
1074 358 1 -0.35 12.121157619446203 1.1080591892643037 7.013074492896013 1 2 -1
1072 358 1 -0.35 9.929590048738312 0.853073498018208 6.251637821452378 1 2 -1
1735 579 1 -0.35 15.44180838223533 4.228146681717673 6.232100790985308 -1 -4 5
1737 579 1 -0.35 16.459278434465002 4.036858727490042 4.16657950341494 -1 -4 5
1736 579 2 0.7 15.868784560713369 4.132961788161919 5.180715498616013 -1 -4 5
2801 934 2 0.7 17.457945107438388 2.646470410115166 9.256038334180458 -1 3 1
3055 1019 1 -0.35 13.868335085823942 7.5781190229331035 5.629777453356705 -5 -2 1
1009 337 1 -0.35 14.988471646620264 5.523229704710072 8.599928895100083 0 -1 -2
5526 1842 1 -0.35 13.640288735675423 7.7062773566387435 1.4106655239082138 -2 2 -1
2595 865 1 -0.35 10.968446485361577 1.862775353659491 0.12758169519791862 3 -3 0
1010 337 2 0.7 15.141663110747935 6.2250707665185425 9.529441979302833 0 -1 -2
2594 865 2 0.7 11.044588455208428 2.6133462061773582 1.0237100286714127 3 -3 0
2593 865 1 -0.35 11.051591986057804 3.3907537026071886 1.874267952974865 3 -3 0
5524 1842 1 -0.35 15.07950851675047 6.410150473445818 2.659407647002775 -2 2 -1
1011 337 1 -0.35 15.382542714022222 6.918874738350766 10.450420200271159 0 -1 -2
391 131 1 -0.35 13.667552105066287 1.011016402736534 2.379549150304267 -2 -2 4
1185 395 1 -0.35 10.609611289197394 4.053659738235334 6.866709450584372 3 -2 -3
1183 395 1 -0.35 11.738246678104732 4.569967994118892 8.814631291378456 3 -2 -3
1184 395 2 0.7 11.207642611595777 4.231958081041829 7.84645043752648 3 -2 -3
4761 1587 1 -0.35 13.440985707869874 7.795185175422112 12.602611566874295 -1 1 -1
5525 1842 2 0.7 14.35826036268158 7.109488918373708 2.0583515500871337 -2 2 -1
5189 1730 2 0.7 11.362060007162219 5.81152315290692 11.460921475219077 2 2 5
5190 1730 1 -0.35 11.884764596762631 4.873406643468524 11.93138202781842 2 2 5
159 53 1 -0.35 15.560518573140232 1.6065497225387002 -0.20249780161779568 0 0 4
5188 1730 1 -0.35 10.779289832709864 6.721580742862673 11.001987748325268 2 2 5
2802 934 1 -0.35 17.726376646924958 1.6756027473060673 8.620614642897412 -1 3 1
4502 1501 2 0.7 10.132434894526847 0.8628393749583878 10.814275564701536 -4 2 -3
4503 1501 1 -0.35 10.15633979403657 1.5131374218183806 9.81459746299834 -4 2 -3
158 53 2 0.7 15.777899053119373 0.6277652055005611 0.4235193163768506 0 0 4
157 53 1 -0.35 15.885721162853091 -0.32194292919680695 1.0510250849513294 0 0 4
4501 1501 1 -0.35 10.080970987876741 0.26325085488089806 11.794057262736333 -4 2 -3
639 213 1 -0.35 12.750637134456287 2.0907729337051015 11.790818602140627 -1 2 -1
346 116 1 -0.35 17.64545449809023 5.5271786837101775 0.707625340755575 1 -2 -1
392 131 2 0.7 14.004070448293003 0.03451487286880517 2.9152074048832226 -2 -2 4
3057 1019 1 -0.35 11.722898566796141 6.990016605754839 4.9195584529268555 -5 -2 1
3056 1019 2 0.7 12.769365642478494 7.329312070720978 5.274434090812473 -5 -2 1
2800 934 1 -0.35 17.185478754623563 3.6785067483772327 9.769321791078777 -1 3 1
297 99 1 -0.35 17.23978234246463 6.1232849358818555 12.821020885922993 3 0 -2
2671 891 1 -0.35 17.42012463118579 8.007948617106512 8.11625098275778 1 3 0
4336 1446 1 -0.35 10.969545139618438 0.3883429888121287 3.197185484311801 -6 0 0
4760 1587 2 0.7 14.453404681093655 8.001975582178696 13.143517514476981 -1 1 -1
4171 1391 1 -0.35 17.088234334810092 1.1400354396381294 5.51271735370858 3 -1 1
638 213 2 0.7 12.590358802025579 2.3843505694426277 12.921254345147503 -1 2 -1
5225 1742 2 0.7 8.551769366707871 8.694163496230493 8.51307711960185 -1 1 -4
4458 1486 1 -0.35 -0.071752450239782 15.489062507115293 12.940519548689464 -1 -1 1
834 278 1 -0.35 5.670493299467841 9.426807468359726 5.75836930408767 -3 -2 -4
4810 1604 1 -0.35 8.342620341325448 8.755836284204927 4.4183349601962165 -1 -2 3
1137 379 1 -0.35 3.4448583207975316 12.074701937549747 -0.11473496439525327 0 3 2
3978 1326 1 -0.35 2.629894607988546 9.005397137731626 4.73713371918134 0 3 -1
1358 453 2 0.7 0.08470825321087772 16.204537135287087 4.572259074807531 -1 5 2
272 91 2 0.7 0.002451943652711508 10.245959380855059 0.5225709280942594 2 3 2
2629 877 1 -0.35 0.6666212944560201 11.914334975922905 3.2922970455364284 1 1 -2
2630 877 2 0.7 0.43871394356096327 11.452059064139275 4.3425150186859325 1 1 -2
1357 453 1 -0.35 -0.34016734994158593 16.375062392534424 3.4999015079835294 -1 5 2
300 100 1 -0.35 6.917392155380632 11.558709640330097 -0.1508824729565117 2 2 -1
2631 877 1 -0.35 -0.04578311655882461 10.882992335325433 5.232266545557626 1 1 -2
557 186 2 0.7 2.8249618414291957 11.082443537152193 10.786451378111183 1 0 3
4594 1532 1 -0.35 5.34848097997757 11.955876365327805 9.268044219038522 3 5 0
1359 453 1 -0.35 0.6283251927403062 15.993826903394993 5.5758255798078045 -1 5 2
2511 837 1 -0.35 0.7383953052044638 14.925494899759585 9.578867938171342 3 0 1
2509 837 1 -0.35 -0.027458255930412845 13.076262282992921 8.304090110121342 3 0 1
833 278 2 0.7 5.6294863532983905 10.594172002356828 5.528808194176463 -3 -2 -4
832 278 1 -0.35 5.526938247036207 11.72230784764697 5.239348237836359 -3 -2 -4
2510 837 2 0.7 0.31046670029153345 14.022400248168287 8.934174319699054 3 0 1
556 186 1 -0.35 3.4865440973601025 10.245695327418211 11.212594976280249 1 0 3
4596 1532 1 -0.35 6.970799212663299 13.599180335463922 9.242401472553906 3 5 0
1528 510 1 -0.35 3.8155347064360514 16.71419404164001 0.9659362908365277 0 -5 1
4595 1532 2 0.7 6.156936698290549 12.775871556747544 9.341681978032417 3 5 0
2226 742 1 -0.35 5.082411818422441 14.626624370944008 5.571934141458904 2 -5 3
2225 742 2 0.7 6.150305777418413 14.926069151037165 5.848782743956292 2 -5 3
2224 742 1 -0.35 7.208261006610769 15.227802527379191 6.239268642282834 2 -5 3
558 186 1 -0.35 2.1406159360088086 11.928468684946635 10.424292573444648 1 0 3
1529 510 2 0.7 4.224540758679117 15.985436104873767 0.13938424162591867 0 -5 1
298 100 1 -0.35 6.8719553675057465 11.157499647007404 2.083736471617 2 2 -1
1081 361 1 -0.35 6.842908572070659 9.38845125592369 11.234222250668632 -4 3 6
299 100 2 0.7 6.877134361559469 11.341278179854202 0.9376410684037877 2 2 -1
5217 1739 1 -0.35 0.8781933620977684 16.283047834484965 -0.425906437229327 -2 0 -5
271 91 1 -0.35 0.6247081986808181 10.262837826481311 -0.42611617681465686 2 3 2
1087 363 1 -0.35 7.176068865945382 14.13113534767536 1.4348724437345202 0 -4 0
4198 1400 1 -0.35 7.656178911666599 14.275249450881867 12.861869423388763 -3 0 -3
2512 838 1 -0.35 3.911292427764449 13.269211882009692 13.200952409167662 -1 -3 0
4199 1400 2 0.7 8.38763551053433 14.541137967410874 12.041622755070259 -3 0 -3
1088 363 2 0.7 8.006898217843322 14.950286764563613 1.4014207558981342 0 -4 0
3199 1067 1 -0.35 5.6491470661164 17.80806248063696 9.684502246577209 -2 1 0
5224 1742 1 -0.35 8.841055603820402 9.819634519870684 8.398397544843379 -1 1 -4
5237 1746 2 0.7 16.622954626188417 12.957034674444406 5.422936498462313 -2 2 1
3960 1320 1 -0.35 15.84264845150556 13.494245076019642 12.736507336748682 -2 4 -4
2673 891 1 -0.35 17.49599085454053 10.119831829842399 7.192180566697019 1 3 0
1940 647 2 0.7 11.782574795669477 13.530151223191982 9.204182973561323 0 4 1
567 189 1 -0.35 12.774447144589331 8.785508985706706 8.644606923324888 2 -3 1
2672 891 2 0.7 17.43195548565217 9.102104614222293 7.696608588517021 1 3 0
566 189 2 0.7 12.08533675392416 9.638150376537617 9.016658653141384 2 -3 1
565 189 1 -0.35 11.455455960030573 10.505819498995198 9.398836563396857 2 -3 1
503 168 2 0.7 9.714612775856677 17.763249666422688 9.399940268230413 -1 4 0
3959 1320 2 0.7 16.655339676722576 13.878278821409506 12.0177020755123 -2 4 -4
3364 1122 1 -0.35 16.932577778001008 12.003711288567048 9.881558666820181 -4 -1 2
4259 1420 2 0.7 10.264481586833577 9.134284920104166 0.6147306072371856 1 0 1
4258 1420 1 -0.35 10.69818313593947 8.753644384322644 1.6192563583431996 1 0 1
3548 1183 2 0.7 17.741104515260165 10.217353817209373 2.8021360677667553 0 2 3
4986 1662 1 -0.35 17.38053477476354 9.396938428205289 11.207086026207476 1 3 0
4200 1400 1 -0.35 9.10707265070701 14.830180825156512 11.169991786066541 -3 0 -3
504 168 1 -0.35 9.693601362282227 17.768257427040787 8.238574291599226 -1 4 0
1894 632 1 -0.35 12.174636760333643 17.5964369007647 6.207855820664655 3 2 1
1939 647 1 -0.35 12.746626973824927 13.124874471729955 9.642286780280257 0 4 1
113 38 2 0.7 13.33154991271559 11.423012500652234 5.8084016671851275 1 -1 0
3549 1183 1 -0.35 16.608784227272942 9.981332793713118 2.650145437958177 0 2 3
3365 1122 2 0.7 16.127789267140617 11.456602263118617 9.282278825182678 -4 -1 2
5236 1746 1 -0.35 16.2487244183779 13.205616045649592 6.508936653762495 -2 2 1
1564 522 1 -0.35 8.642071448470748 12.332507963491814 6.5203979783091714 0 -3 3
4415 1472 2 0.7 12.816128827008626 16.17765182915985 -0.030784260808897845 2 -2 1
5238 1746 1 -0.35 17.065563442510786 12.782905142684173 4.369302981625122 -2 2 1
5846 1949 2 0.7 9.66158812474059 10.87151069621273 11.857450131992598 7 0 -2
2162 721 2 0.7 13.03002239036493 15.51000994031336 12.404982550216426 -2 2 1
5847 1949 1 -0.35 9.643709583660144 9.714647256889592 11.8068991478763 7 0 -2
124 42 1 -0.35 11.081693820140421 14.523551630367033 4.563297727569308 2 0 0
2161 721 1 -0.35 12.30577990573128 15.577787382191218 11.481609327739891 -2 2 1
4779 1593 1 -0.35 13.565985058541594 11.395837331761761 2.0516392422597103 1 -2 5
1080 360 1 -0.35 16.67932139231271 16.883566837070013 4.358025216560498 5 2 3
1566 522 1 -0.35 9.69992799258343 11.616297453781923 4.5366267559902 0 -3 3
4777 1593 1 -0.35 13.413623829959198 9.538994100577995 3.4677019441728048 1 -2 5
1078 360 1 -0.35 16.24475082087085 16.484816014603155 6.577052162678286 5 2 3
1565 522 2 0.7 9.240502354341814 11.984301160456189 5.551510195819926 0 -3 3
114 38 1 -0.35 12.21849360147432 11.612839916299015 6.018241667472769 1 -1 0
126 42 1 -0.35 13.378340732047967 14.408509769113369 4.9349588050193045 2 0 0
3775 1259 1 -0.35 14.850995037155936 17.80788960667702 10.79244710540216 -3 -1 1
1089 363 1 -0.35 8.891986378535826 15.702368849104765 1.530016731978077 0 -4 0
112 38 1 -0.35 14.461373679671919 11.310031604676224 5.5706366835377805 1 -1 0
125 42 2 0.7 12.249244549940228 14.48613318023153 4.716455799635509 2 0 0
3366 1122 1 -0.35 15.20518034561814 10.923016399015426 8.78182538024389 -4 -1 2
1941 647 1 -0.35 10.845240375640335 13.950282753530319 8.68185775142167 0 4 1
5845 1949 1 -0.35 9.739165742417844 11.996313340366584 11.890468381858575 7 0 -2
4778 1593 2 0.7 13.423835467455776 10.47360092416528 2.736654991085053 1 -2 5
4416 1472 1 -0.35 13.781017816810992 15.887252006079862 0.5523430027200389 2 -2 1
1079 360 2 0.7 16.40601775448019 16.67581817068652 5.480556343394334 5 2 3
3958 1320 1 -0.35 17.534470597169875 14.288861972993173 11.401824207971012 -2 4 -4
4260 1420 1 -0.35 9.854284544372238 9.455631277677941 -0.4252225760261874 1 0 1
376 126 1 -0.35 15.783124129594086 11.001320013210034 -0.4626455469327482 -2 0 0
3769 1257 1 -0.35 4.827900472728096 0.6532568583873586 18.867360461621892 0 0 -2
3770 1257 2 0.7 4.961337744889907 1.8260631669522454 18.898414550889775 0 0 -2
3167 1056 2 0.7 5.210481124810276 0.1934806393620041 22.20817424040389 -1 -2 0
1172 391 2 0.7 1.5154554808949787 4.077754780641003 16.20275588137367 3 3 -2
3771 1257 1 -0.35 5.030813364458864 2.9739544897539143 18.806885310418853 0 0 -2
1173 391 1 -0.35 2.3647912545082943 4.316950208615066 15.413653833957023 3 3 -2
4229 1410 2 0.7 5.6647665765781285 5.928516167847011 19.87322727779034 0 -2 3
4230 1410 1 -0.35 5.504930167726358 5.082652634533707 20.62855539061838 0 -2 3
4228 1410 1 -0.35 5.883843083972112 6.805085554920123 19.09342089140846 0 -2 3
3022 1008 1 -0.35 5.05670929808316 5.220480043661687 24.955098933708005 2 -2 -1
3674 1225 2 0.7 8.342925545493914 4.2658355483999895 23.03173652413551 -2 -2 -2
4264 1422 1 -0.35 7.217257234917762 5.001278055790821 14.144108587338602 -1 2 -5
3435 1145 1 -0.35 -0.10640257325317781 6.900796691772293 15.021962190749566 -2 1 2
3673 1225 1 -0.35 7.7247010076081555 3.3297793160634717 22.652417867083265 -2 -2 -2
585 195 1 -0.35 2.913086129738693 1.6741829294656858 16.07656597088614 0 1 1
732 244 1 -0.35 2.1766988581513433 0.5016030226471337 21.03118660511007 1 -1 0
4067 1356 2 0.7 7.655001013210445 8.318070036926356 26.771688642899075 1 0 0
1171 391 1 -0.35 0.7329904163051157 3.7491993879693455 17.013562506756827 3 3 -2
3618 1206 1 -0.35 7.559453061348703 1.407204408202717 16.732590178040276 1 -4 1
584 195 2 0.7 3.6228448531070523 1.5828329040950337 15.1472000997136 0 1 1
3617 1206 2 0.7 8.170385270225921 0.8600651789263567 15.907754640563695 1 -4 1
1131 377 1 -0.35 -0.021072428889000072 4.945154483321435 20.093996785024213 3 1 0
731 244 2 0.7 1.7668130362922554 0.9181702582841127 22.053561399201133 1 -1 0
583 195 1 -0.35 4.348049915575102 1.3572756181831738 14.25399549773407 0 1 1
4265 1422 2 0.7 6.235791949237344 4.8503311102364846 13.520602834813566 -1 2 -5
730 244 1 -0.35 1.4914353554456996 1.3857552604290762 23.088214195332124 1 -1 0
4806 1602 1 -0.35 1.9616162283174061 8.074952791636358 25.24156213472978 2 -2 1
3001 1001 1 -0.35 4.558146218277949 7.806659631353551 16.392731304229702 -1 -1 1
3166 1056 1 -0.35 5.390719470963106 1.2682813720415278 21.832447238916725 -1 -2 0
1738 580 1 -0.35 8.106715192903906 4.7823288004221975 17.10674103994215 3 2 2
3024 1008 1 -0.35 6.0225261038571185 3.1138368486782797 25.268527357972143 2 -2 -1
3002 1001 2 0.7 5.711104324795518 7.918114982165195 16.33311585448448 -1 -1 1
3003 1001 1 -0.35 6.831407423161095 8.170375272502197 16.282962285963944 -1 -1 1
3023 1008 2 0.7 5.571185477329592 4.1857230754937245 25.078512778842942 2 -2 -1
4689 1563 1 -0.35 0.9346650503136538 -0.5457310813855116 15.894250678606038 6 -1 5
3675 1225 1 -0.35 8.959258842328596 5.150719617635046 23.477605891459607 -2 -2 -2
4943 1648 2 0.7 12.619453929918867 -0.25507467292011365 16.528495296336505 5 1 -2
3616 1206 1 -0.35 8.778200197641635 0.36778498081822486 15.050298889061322 1 -4 1
2100 700 1 -0.35 16.036623423416607 3.093689463957599 26.131620228114002 -4 0 -2
1739 580 2 0.7 8.859490043468451 5.333333874238752 16.40297432943493 3 2 2
1740 580 1 -0.35 9.670018833796304 5.847842390479268 15.704173098131221 3 2 2
990 330 1 -0.35 16.564489453515684 0.113616547520764 24.525554342534523 2 -3 1
4635 1545 1 -0.35 12.05042685764409 7.702007174557208 24.45732774694948 0 2 -2
127 43 1 -0.35 13.15401135489652 4.8866106150189115 16.9908313985065 -1 1 0
129 43 1 -0.35 12.537256898696153 5.8075785004492575 14.990977764405274 -1 1 0
128 43 2 0.7 12.817781074679088 5.312118445933 15.994750946912692 -1 1 0
2989 997 1 -0.35 15.398811088147566 1.4810336653469287 13.987431329157607 1 -1 1
1720 574 1 -0.35 16.31187851510414 5.607154913041838 16.93141348286148 5 -2 -2
762 254 1 -0.35 12.355628336100029 6.431731953325673 19.632668288034935 0 4 3
2990 997 2 0.7 15.65371562315472 1.6150479836278078 15.117403202437867 1 -1 1
4944 1648 1 -0.35 13.176351740447771 0.335911516122282 15.706452764997685 5 1 -2
761 254 2 0.7 12.047306415760534 6.306095636832517 20.729810484758165 0 4 3
1145 382 2 0.7 11.51851861879667 4.896681937204456 25.69712175696579 0 4 1
1146 382 1 -0.35 11.96786163641341 3.9876080566288614 25.10977542367014 0 4 1
1721 574 2 0.7 15.956502783834797 6.242286411005515 17.825155950945373 5 -2 -2
2991 997 1 -0.35 15.958008974778789 1.751059647513035 16.234591502685664 1 -1 1
1722 574 1 -0.35 15.492554242864692 6.7796723301657 18.732685793631866 5 -2 -2
13 5 1 -0.35 14.632687481376262 2.2669122486344895 20.60238953066319 -4 -4 1
15 5 1 -0.35 16.117788179065045 3.9210513974254315 19.92823364665072 -4 -4 1
14 5 2 0.7 15.327039037203804 3.1170750665784652 20.241507182936854 -4 -4 1
1144 382 1 -0.35 11.136829382546734 5.79684186065009 26.26767684083305 0 4 1
4634 1545 2 0.7 11.265355394543246 8.363845920843438 23.882975237703807 0 2 -2
2713 905 1 -0.35 17.07893642457364 2.266341861635619 22.534838211357208 -4 1 -1
4637 1546 2 0.7 16.09724434347423 7.723382873383079 26.34096465862959 0 7 3
2050 684 1 -0.35 11.604732596319908 3.5083366678599814 20.10247317753337 3 -1 0
2052 684 1 -0.35 11.99672384063099 1.9232723952833473 18.49120087292026 3 -1 0
2051 684 2 0.7 11.750479307119566 2.701616852214834 19.289514232869212 3 -1 0
754 252 1 -0.35 14.48140749015414 5.7677578030706895 22.393696456173082 -1 -3 0
755 252 2 0.7 14.754000857336749 5.565318212275707 23.51021397668185 -1 -3 0
760 254 1 -0.35 11.705529675837214 6.2270942524004305 21.82508234550397 0 4 3
756 252 1 -0.35 15.122643092568198 5.425697880793494 24.576517823018925 -1 -3 0
637 213 1 -0.35 12.248473014652207 2.701128653020931 13.97961700213581 -1 2 -1
2099 700 2 0.7 15.649120706682517 2.3572653343939933 26.913686530606494 -4 0 -2
4197 1399 1 -0.35 10.920462448057934 7.8082030946600565 17.286752740049334 0 1 -3
1485 495 1 -0.35 9.497920131635583 -0.3851994031250662 26.7380241632971 3 1 -3
4759 1587 1 -0.35 15.438911858756054 8.285633421270624 13.685466421635706 -1 1 -1
4638 1546 1 -0.35 16.589215039514787 6.693871315551872 26.538309733904253 0 7 3
2548 850 1 -0.35 -0.4548786609332893 12.379692354789228 15.048303285038712 0 -4 -5
4805 1602 2 0.7 2.8739068818677156 8.680607470237977 24.96623048030187 2 -2 1
4804 1602 1 -0.35 3.8027515330842636 9.30201284777682 24.664835221457164 2 -2 1
5089 1697 1 -0.35 4.502759564456311 17.66664519421994 14.890295887281528 1 -4 1
5662 1888 1 -0.35 2.3818193911760552 9.733517029884345 14.67920228167787 2 0 0
5664 1888 1 -0.35 1.2501128676186501 8.733458308723577 16.42385472543402 2 0 0
4066 1356 1 -0.35 6.98908623361014 8.966937421433576 26.055499050927466 1 0 0
5663 1888 2 0.7 1.9000995388191937 9.152111777698384 15.560547310910245 2 0 0
4141 1381 1 -0.35 7.062578971683474 10.101934833327034 23.251856123051198 3 4 1
5249 1750 2 0.7 4.50719774171755 17.252629690360042 18.20277373643212 2 1 3
1984 662 1 -0.35 3.20011354726377 14.471468118600102 22.980176284464502 -1 -4 2
1985 662 2 0.7 4.23291318227138 14.72686706395126 23.4400129165528 -1 -4 2
5250 1750 1 -0.35 5.029635438438889 16.405372219835783 17.63464374335144 2 1 3
4143 1381 1 -0.35 7.927255349906211 11.833492863322789 24.507622923558195 3 4 1
4142 1381 2 0.7 7.517891411458436 10.942308218964538 23.867751081112143 3 4 1
3337 1113 1 -0.35 1.1143436195548848 14.445573088439582 20.92579763652623 2 -4 -1
3338 1113 2 0.7 1.6633002873652276 13.763041448232617 20.192873501150174 2 -4 -1
4221 1407 1 -0.35 4.415521915126616 11.356247373221377 17.910104657332337 -1 -2 -5
4220 1407 2 0.7 4.433675623131877 12.541352283040283 17.865237801557495 -1 -2 -5
4219 1407 1 -0.35 4.447741493147753 13.684749313737989 17.803512819864007 -1 -2 -5
735 245 1 -0.35 2.8901918183703206 9.657499313553277 21.804990219325525 -2 -1 1
734 245 2 0.7 3.216587719432325 10.610032482429009 22.355062368987962 -2 -1 1
733 245 1 -0.35 3.49714768136716 11.573950054908519 22.949683013127522 -2 -1 1
2513 838 2 0.7 4.451954710639969 14.035546000240009 13.884977871791772 -1 -3 0
5252 1751 2 0.7 1.3495257015022353 17.02344360995875 17.088346000058532 2 -1 1
3090 1030 1 -0.35 5.636779513523985 12.110559681025665 20.506885075659365 1 0 -5
2514 838 1 -0.35 5.000212101357108 14.790193343130511 14.5122358318321 -1 -3 0
3089 1030 2 0.7 6.697082318757522 12.248405369847841 20.929948851241665 1 0 -5
3112 1038 1 -0.35 7.713835153410743 12.519707466696422 17.936559618722598 0 -1 2
5253 1751 1 -0.35 1.3063533321517258 15.914662614234981 17.432505582219857 2 -1 1
3113 1038 2 0.7 7.7778131323232245 12.452958110095077 16.785491461078188 0 -1 2
3339 1113 1 -0.35 2.1672469479245047 13.00565974754053 19.464081668694845 2 -4 -1
3114 1038 1 -0.35 7.91842861264408 12.515271584180038 15.640023798563064 0 -1 2
3088 1030 1 -0.35 7.744868867168202 12.439062460360136 21.38481329305076 1 0 -5
1986 662 1 -0.35 5.244911967615799 15.064988814156438 23.906559150286284 -1 -4 2
267 89 1 -0.35 1.0221915045307026 16.383071001919134 23.627349161055072 -1 -6 -1
266 89 2 0.7 0.7451323379743267 17.246056515610054 22.926660803702195 -1 -6 -1
2596 866 1 -0.35 7.498648112553074 17.659623263842008 26.382864783184104 3 1 2
4623 1541 1 -0.35 2.5937953396473628 12.448287019074439 27.02359116533106 -2 5 -3
2563 855 1 -0.35 13.98217810097595 8.849929294773354 16.427436002659107 -1 5 0
5113 1705 1 -0.35 10.625420860575096 16.244870164473205 15.626498864291989 1 -3 -5
1799 600 2 0.7 17.253140135715817 13.404431552474144 21.066153005390397 -3 1 -2
4921 1641 1 -0.35 14.975862254178828 8.819675306287811 22.757280211148963 2 4 2
2163 721 1 -0.35 13.646276182581682 15.51784487060521 13.41146224300668 -2 2 1
512 171 2 0.7 14.349843011000576 14.187874330781309 25.89902860320374 3 2 0
5115 1705 1 -0.35 10.412035340963303 15.958367773610618 17.921157337298734 1 -3 -5
215 72 2 0.7 11.576934574252782 11.8666773341211 20.099256705120215 3 -3 1
5713 1905 1 -0.35 15.97501189302428 15.71373325998793 15.641482342956472 -3 0 -3
2565 855 1 -0.35 13.021663715270797 9.810961047155391 18.277789339488454 -1 5 0
5178 1726 1 -0.35 10.66193100524654 12.757628249420739 26.817619119680067 0 3 1
5714 1905 2 0.7 15.097434101928709 15.721623161143665 16.405450654506467 -3 0 -3
4923 1641 1 -0.35 13.04480084740529 9.248293435974295 21.525226832319863 2 4 2
4480 1494 1 -0.35 8.745513010745585 15.438885188159535 23.580297998345188 -2 1 -3
3691 1231 1 -0.35 17.393422290023196 16.97918633287756 21.293260388193477 2 3 1
4481 1494 2 0.7 9.739309433116121 14.837479029706117 23.649649372901056 -2 1 -3
511 171 1 -0.35 13.256423121220237 14.351469080511407 25.57585775778787 3 2 0
1812 604 1 -0.35 12.90010517534132 12.554274342772315 14.780809128105382 -1 -2 0
2564 855 2 0.7 13.448027244198718 9.354567258378045 17.292773512638828 -1 5 0
1800 600 1 -0.35 16.2716230373637 12.810296800563984 20.818636612037228 -3 1 -2
1810 604 1 -0.35 14.87708582073829 11.760913072545662 15.721905931631493 -1 -2 0
4633 1545 1 -0.35 10.47404635124901 9.086417145569932 23.40776986118478 0 2 -2
1620 540 1 -0.35 12.4233137810476 15.828040979474288 21.05352020263977 -1 -1 5
5715 1905 1 -0.35 14.2256942861954 15.681881308768997 17.196200037447035 -3 0 -3
4195 1399 1 -0.35 10.78405136886356 9.400972342690451 15.575833884160815 0 1 -3
1618 540 1 -0.35 14.492105971435475 14.878414899876363 21.481398770950626 -1 -1 5
1811 604 2 0.7 13.903815954427516 12.14146404644735 15.226292343131217 -1 -2 0
4636 1546 1 -0.35 15.51985438307322 8.722842930178041 26.132239019706095 0 7 3
513 171 1 -0.35 15.448567448067788 14.044182393137987 26.21761797905744 3 2 0
216 72 1 -0.35 10.635704706286374 11.25746680981944 19.868741531406414 3 -3 1
4482 1494 1 -0.35 10.705119553650908 14.142345496149101 23.687250899534583 -2 1 -3
4196 1399 2 0.7 10.783157758907596 8.63999401730327 16.479253826527984 0 1 -3
214 72 1 -0.35 12.576577655241598 12.429756019332954 20.336416496848003 3 -3 1
3692 1231 2 0.7 16.605519024316898 17.595141997027795 20.73934255429666 2 3 1
5177 1726 2 0.7 11.355918591632088 12.224668488891393 26.05626456356817 0 3 1
4922 1641 2 0.7 13.977798731494309 8.971722093211513 22.15155179233876 2 4 2
5176 1726 1 -0.35 11.983020893539749 11.603646075253316 25.301553458260866 0 3 1
1619 540 2 0.7 13.480252404938309 15.37064175928802 21.195453941976467 -1 -1 5
5114 1705 2 0.7 10.515902094304701 16.142971692448597 16.75849803102333 1 -3 -5
320 107 2 0.7 6.966483793958938 5.978990739952499 33.01865858264922 -2 2 -2
321 107 1 -0.35 7.052350325665297 5.716482715786384 31.89693028793816 -2 2 -2
3908 1303 2 0.7 3.869553719140135 3.793056454366937 33.312078348228034 2 2 3
3909 1303 1 -0.35 4.4669769645778565 2.9160762503010944 33.69904590552452 2 2 3
319 107 1 -0.35 6.8549979192299055 6.2610428833405285 34.14059970242546 -2 2 -2
2607 869 1 -0.35 7.44518915453383 1.9299392568263771 28.355696936376734 1 1 -1
3907 1303 1 -0.35 3.176098171189676 4.632606897514953 32.898963250882645 2 2 3
3531 1177 1 -0.35 1.0487269584927337 3.160303490648851 35.732916532887835 1 -2 4
2606 869 2 0.7 6.856191713564591 1.415496502186493 29.208237320374757 1 1 -1
3043 1015 1 -0.35 -0.5008066594801649 0.6605256379692821 38.70262126953144 1 -5 4
2605 869 1 -0.35 6.259458627073922 0.9699975108164862 30.126958249003977 1 1 -1
3689 1230 2 0.7 3.3543556136913084 6.5644778671879225 40.04785373940828 1 -1 -2
164 55 2 0.7 4.008251909784313 -0.49386372498046155 32.531843775049246 4 3 2
3529 1177 1 -0.35 -0.35327027615753437 4.951711370158651 36.16882903883694 1 -2 4
3688 1230 1 -0.35 3.6040927793141124 5.4903907455803145 40.34700294655569 1 -1 -2
3786 1262 1 -0.35 7.4086283096376935 -0.19206774115439773 34.690872238585825 4 1 2
3722 1241 2 0.7 7.0429437424998715 7.306095928368428 40.4412693982995 1 2 0
3721 1241 1 -0.35 6.116785667923537 6.771760890072698 39.99382649911663 1 2 0
4691 1564 2 0.7 5.44906332212157 5.2760881817701275 29.595913807662857 0 -2 -1
3690 1230 1 -0.35 3.0289781982274393 7.640910198133149 39.79416152303236 1 -1 -2
4692 1564 1 -0.35 4.932153877907643 6.34122021468549 29.634941973430408 0 -2 -1
165 55 1 -0.35 4.810995942525993 -0.4018974999061897 33.35919793479845 4 3 2
4530 1510 1 -0.35 0.30492555448315584 2.112688895656398 31.12467919258329 2 1 2
4528 1510 1 -0.35 1.4722490175590792 3.9590432711942034 30.415434773772816 2 1 2