created by fftool

6000 atoms
4000 bonds
2000 angles
2 atom types
1 bond types
1 angle types
0.000000 54.078336 xlo xhi
0.000000 54.078336 ylo yhi
0.000000 54.078336 zlo zhi

Atoms

      1       1    1  -0.325600  3.600689e+01  7.096680e+00  4.652907e+01  # O CO2
      2       1    2   0.651200  3.528410e+01  6.379122e+00  4.708431e+01  # C CO2
      3       1    1  -0.325600  3.456132e+01  5.661564e+00  4.763956e+01  # O CO2
      4       2    1  -0.325600  1.552064e+01  1.037295e+01  3.949785e+01  # O CO2
      5       2    2   0.651200  1.563027e+01  1.077711e+01  3.841608e+01  # C CO2
      6       2    1  -0.325600  1.573990e+01  1.118128e+01  3.733431e+01  # O CO2
      7       3    1  -0.325600  1.846580e+01  9.290613e+00  5.257628e+01  # O CO2
      8       3    2   0.651200  1.777146e+01  8.584311e+00  5.197243e+01  # C CO2
      9       3    1  -0.325600  1.707713e+01  7.878010e+00  5.136858e+01  # O CO2
     10       4    1  -0.325600  8.868340e+00  5.156298e+01  3.085502e+01  # O CO2
     11       4    2   0.651200  7.852462e+00  5.206775e+01  3.109751e+01  # C CO2
     12       4    1  -0.325600  6.836583e+00  5.257251e+01  3.133999e+01  # O CO2
     13       5    1  -0.325600  3.589214e+00  1.207606e+01  7.274674e+00  # O CO2
     14       5    2   0.651200  3.421337e+00  1.093165e+01  7.186633e+00  # C CO2
     15       5    1  -0.325600  3.253460e+00  9.787247e+00  7.098592e+00  # O CO2
     16       6    1  -0.325600  5.202479e+01  1.452526e+01  5.025703e+01  # O CO2
     17       6    2   0.651200  5.129909e+01  1.373583e+01  5.069947e+01  # C CO2
     18       6    1  -0.325600  5.057339e+01  1.294639e+01  5.114191e+01  # O CO2
     19       7    1  -0.325600  6.908478e+00  2.061031e+01  8.466199e+00  # O CO2
     20       7    2   0.651200  6.220080e+00  1.984472e+01  7.931814e+00  # C CO2
     21       7    1  -0.325600  5.531682e+00  1.907912e+01  7.397428e+00  # O CO2
     22       8    1  -0.325600  3.274155e+00  5.148744e+01  1.439529e+01  # O CO2
     23       8    2   0.651200  4.374778e+00  5.114229e+01  1.427239e+01  # C CO2
     24       8    1  -0.325600  5.475402e+00  5.079715e+01  1.414949e+01  # O CO2
     25       9    1  -0.325600  2.441338e+01  8.227074e+00  4.732014e+01  # O CO2
     26       9    2   0.651200  2.363189e+01  7.370199e+00  4.734541e+01  # C CO2
     27       9    1  -0.325600  2.285040e+01  6.513323e+00  4.737068e+01  # O CO2
     28      10    1  -0.325600  4.883574e+01  2.240768e+01  4.447206e+01  # O CO2
     29      10    2   0.651200  4.801022e+01  2.197331e+01  4.516158e+01  # C CO2
     30      10    1  -0.325600  4.718469e+01  2.153894e+01  4.585111e+01  # O CO2
     31      11    1  -0.325600  3.538682e+01  4.158988e+01  2.573879e+01  # O CO2
     32      11    2   0.651200  3.478968e+01  4.087806e+01  2.643329e+01  # C CO2
     33      11    1  -0.325600  3.419253e+01  4.016624e+01  2.712779e+01  # O CO2
     34      12    1  -0.325600  5.059055e+01  2.080910e+01  4.672892e+00  # O CO2
     35      12    2   0.651200  5.114186e+01  2.091225e+01  3.657501e+00  # C CO2
     36      12    1  -0.325600  5.169316e+01  2.101541e+01  2.642110e+00  # O CO2
     37      13    1  -0.325600  1.376140e+01  2.060139e+01  4.996883e+01  # O CO2
     38      13    2   0.651200  1.454758e+01  2.139962e+01  5.026940e+01  # C CO2
     39      13    1  -0.325600  1.533377e+01  2.219785e+01  5.056997e+01  # O CO2
     40      14    1  -0.325600  2.100205e+01  4.915958e+01  3.661027e+01  # O CO2
     41      14    2   0.651200  2.015452e+01  4.992204e+01  3.639592e+01  # C CO2
     42      14    1  -0.325600  1.930700e+01  5.068451e+01  3.618158e+01  # O CO2
     43      15    1  -0.325600  7.341660e+00  4.492223e+01  3.964357e+01  # O CO2
     44      15    2   0.651200  8.264649e+00  4.422952e+01  3.952588e+01  # C CO2
     45      15    1  -0.325600  9.187639e+00  4.353682e+01  3.940818e+01  # O CO2
     46      16    1  -0.325600  4.207518e+01  3.956862e+01  2.734877e+01  # O CO2
     47      16    2   0.651200  4.185374e+01  4.052719e+01  2.673419e+01  # C CO2
     48      16    1  -0.325600  4.163230e+01  4.148576e+01  2.611962e+01  # O CO2
     49      17    1  -0.325600  4.845344e+01  1.462062e+01  3.295734e+01  # O CO2
     50      17    2   0.651200  4.850860e+01  1.348065e+01  3.316477e+01  # C CO2
     51      17    1  -0.325600  4.856376e+01  1.234068e+01  3.337220e+01  # O CO2
     52      18    1  -0.325600  1.942885e+01  5.918605e+00  9.862267e+00  # O CO2
     53      18    2   0.651200  2.039037e+01  5.284228e+00  9.725768e+00  # C CO2
     54      18    1  -0.325600  2.135190e+01  4.649850e+00  9.589268e+00  # O CO2
     55      19    1  -0.325600  4.377414e+01  3.845517e+01  2.186791e+01  # O CO2
     56      19    2   0.651200  4.384972e+01  3.732992e+01  2.213937e+01  # C CO2
     57      19    1  -0.325600  4.392529e+01  3.620466e+01  2.241083e+01  # O CO2
     58      20    1  -0.325600  3.696606e+01  1.492072e+00  2.187285e+01  # O CO2
     59      20    2   0.651200  3.667202e+01  1.739566e+00  2.077837e+01  # C CO2
     60      20    1  -0.325600  3.637799e+01  1.987061e+00  1.968388e+01  # O CO2
     61      21    1  -0.325600  3.099750e+01  3.476784e+01  1.830731e+01  # O CO2
     62      21    2   0.651200  3.135327e+01  3.369068e+01  1.854971e+01  # C CO2
     63      21    1  -0.325600  3.170905e+01  3.261353e+01  1.879212e+01  # O CO2
     64      22    1  -0.325600  3.129319e+01  4.610797e+01  2.972495e+01  # O CO2
     65      22    2   0.651200  3.058850e+01  4.671764e+01  2.903407e+01  # C CO2
     66      22    1  -0.325600  2.988381e+01  4.732731e+01  2.834319e+01  # O CO2
     67      23    1  -0.325600  4.039795e+01  3.655251e+01  3.604508e+01  # O CO2
     68      23    2   0.651200  3.940924e+01  3.713945e+01  3.619856e+01  # C CO2
     69      23    1  -0.325600  3.842053e+01  3.772639e+01  3.635204e+01  # O CO2
     70      24    1  -0.325600  4.456462e+01  3.651719e+01  2.949941e+01  # O CO2
     71      24    2   0.651200  4.442835e+01  3.594188e+01  3.049743e+01  # C CO2
     72      24    1  -0.325600  4.429208e+01  3.536656e+01  3.149545e+01  # O CO2
     73      25    1  -0.325600  2.052009e+01  5.119069e+01  4.115209e+01  # O CO2
     74      25    2   0.651200  2.034546e+01  5.116797e+01  4.000553e+01  # C CO2
     75      25    1  -0.325600  2.017084e+01  5.114524e+01  3.885898e+01  # O CO2
     76      26    1  -0.325600  3.541127e+01  4.611029e+01  2.050369e+01  # O CO2
     77      26    2   0.651200  3.634788e+01  4.609297e+01  1.981953e+01  # C CO2
     78      26    1  -0.325600  3.728448e+01  4.607566e+01  1.913538e+01  # O CO2
     79      27    1  -0.325600  3.283696e+01  2.149522e+01  1.406401e+01  # O CO2
     80      27    2   0.651200  3.301800e+01  2.119780e+01  1.295750e+01  # C CO2
     81      27    1  -0.325600  3.319905e+01  2.090038e+01  1.185099e+01  # O CO2
     82      28    1  -0.325600  8.235595e+00  3.944405e+01  3.273927e+01  # O CO2
     83      28    2   0.651200  9.386499e+00  3.958747e+01  3.271804e+01  # C CO2
     84      28    1  -0.325600  1.053740e+01  3.973089e+01  3.269680e+01  # O CO2
     85      29    1  -0.325600  8.776360e+00  3.647609e+01  3.536935e+01  # O CO2
     86      29    2   0.651200  9.572093e+00  3.571527e+01  3.573481e+01  # C CO2
     87      29    1  -0.325600  1.036783e+01  3.495445e+01  3.610027e+01  # O CO2
     88      30    1  -0.325600  1.646094e+01  3.726738e+01  3.657745e+01  # O CO2
     89      30    2   0.651200  1.542502e+01  3.711151e+01  3.607927e+01  # C CO2
     90      30    1  -0.325600  1.438910e+01  3.695565e+01  3.558110e+01  # O CO2
     91      31    1  -0.325600  5.076706e+01  3.545962e+01  4.612025e+01  # O CO2
     92      31    2   0.651200  5.036825e+01  3.654885e+01  4.613240e+01  # C CO2
     93      31    1  -0.325600  4.996945e+01  3.763807e+01  4.614454e+01  # O CO2
     94      32    1  -0.325600  5.159246e+01  2.814139e+01  2.372768e+01  # O CO2
     95      32    2   0.651200  5.050893e+01  2.774523e+01  2.384860e+01  # C CO2
     96      32    1  -0.325600  4.942540e+01  2.734907e+01  2.396953e+01  # O CO2
     97      33    1  -0.325600  4.523559e+01  6.855931e+00  2.205738e+01  # O CO2
     98      33    2   0.651200  4.423965e+01  6.332715e+00  2.234013e+01  # C CO2
     99      33    1  -0.325600  4.324370e+01  5.809499e+00  2.262287e+01  # O CO2
    100      34    1  -0.325600  1.668968e+01  4.134473e+01  9.663035e+00  # O CO2
    101      34    2   0.651200  1.594186e+01  4.052705e+01  9.319858e+00  # C CO2
    102      34    1  -0.325600  1.519404e+01  3.970937e+01  8.976680e+00  # O CO2
    103      35    1  -0.325600  2.746904e+01  9.722831e+00  2.468232e+01  # O CO2
    104      35    2   0.651200  2.779646e+01  8.884869e+00  2.395005e+01  # C CO2
    105      35    1  -0.325600  2.812388e+01  8.046906e+00  2.321778e+01  # O CO2
    106      36    1  -0.325600  2.688830e+01  1.174392e+01  2.217837e+01  # O CO2
    107      36    2   0.651200  2.746696e+01  1.205079e+01  2.313576e+01  # C CO2
    108      36    1  -0.325600  2.804561e+01  1.235765e+01  2.409315e+01  # O CO2
    109      37    1  -0.325600  5.275424e+00  5.084864e+01  2.310166e+01  # O CO2
    110      37    2   0.651200  4.414481e+00  5.159149e+01  2.287243e+01  # C CO2
    111      37    1  -0.325600  3.553538e+00  5.233434e+01  2.264320e+01  # O CO2
    112      38    1  -0.325600  4.822134e+01  5.835185e+00  4.535303e+01  # O CO2
    113      38    2   0.651200  4.849418e+01  6.882714e+00  4.576997e+01  # C CO2
    114      38    1  -0.325600  4.876703e+01  7.930242e+00  4.618691e+01  # O CO2
    115      39    1  -0.325600  4.655558e+01  3.039402e+01  1.054513e+01  # O CO2
    116      39    2   0.651200  4.751424e+01  3.071135e+01  9.974271e+00  # C CO2
    117      39    1  -0.325600  4.847289e+01  3.102868e+01  9.403413e+00  # O CO2
    118      40    1  -0.325600  2.585602e+01  5.584598e+00  1.424757e+01  # O CO2
    119      40    2   0.651200  2.543927e+01  6.620176e+00  1.456301e+01  # C CO2
    120      40    1  -0.325600  2.502252e+01  7.655754e+00  1.487844e+01  # O CO2
    121      41    1  -0.325600  1.592281e+01  3.037466e+01  4.973031e+01  # O CO2
    122      41    2   0.651200  1.679793e+01  3.014366e+01  4.900478e+01  # C CO2
    123      41    1  -0.325600  1.767305e+01  2.991267e+01  4.827925e+01  # O CO2
    124      42    1  -0.325600  3.927811e+01  1.467658e+01  4.160342e+00  # O CO2
    125      42    2   0.651200  3.846917e+01  1.384532e+01  4.175225e+00  # C CO2
    126      42    1  -0.325600  3.766023e+01  1.301406e+01  4.190108e+00  # O CO2
    127      43    1  -0.325600  2.729659e+01  4.624661e+00  4.239934e+01  # O CO2
    128      43    2   0.651200  2.769460e+01  5.183222e+00  4.333486e+01  # C CO2
    129      43    1  -0.325600  2.809262e+01  5.741782e+00  4.427038e+01  # O CO2
    130      44    1  -0.325600  2.570099e+01  4.734709e+01  9.515975e+00  # O CO2
    131      44    2   0.651200  2.599100e+01  4.820043e+01  8.785691e+00  # C CO2
    132      44    1  -0.325600  2.628101e+01  4.905376e+01  8.055406e+00  # O CO2
    133      45    1  -0.325600  1.625120e+01  1.118044e+01  5.223102e+01  # O CO2
    134      45    2   0.651200  1.659893e+01  1.093271e+01  5.115245e+01  # C CO2
    135      45    1  -0.325600  1.694666e+01  1.068498e+01  5.007388e+01  # O CO2
    136      46    1  -0.325600  2.626147e+01  2.283782e+01  5.208993e+01  # O CO2
    137      46    2   0.651200  2.739554e+01  2.279222e+01  5.232950e+01  # C CO2
    138      46    1  -0.325600  2.852962e+01  2.274662e+01  5.256905e+01  # O CO2
    139      47    1  -0.325600  1.573916e+01  2.911621e+01  1.289258e+01  # O CO2
    140      47    2   0.651200  1.458878e+01  2.896774e+01  1.287937e+01  # C CO2
    141      47    1  -0.325600  1.343839e+01  2.881926e+01  1.286617e+01  # O CO2
    142      48    1  -0.325600  3.912727e+01  2.283668e+01  1.304285e+01  # O CO2
    143      48    2   0.651200  3.921154e+01  2.253600e+01  1.416003e+01  # C CO2
    144      48    1  -0.325600  3.929582e+01  2.223532e+01  1.527721e+01  # O CO2
    145      49    1  -0.325600  2.941382e+01  1.927591e+01  4.980053e+01  # O CO2
    146      49    2   0.651200  3.046448e+01  1.931622e+01  5.029052e+01  # C CO2
    147      49    1  -0.325600  3.151514e+01  1.935653e+01  5.078050e+01  # O CO2
    148      50    1  -0.325600  8.483863e+00  1.504753e+00  1.871751e+01  # O CO2
    149      50    2   0.651200  7.484429e+00  2.093162e+00  1.869503e+01  # C CO2
    150      50    1  -0.325600  6.484995e+00  2.681571e+00  1.867255e+01  # O CO2
    151      51    1  -0.325600  5.532611e+00  4.079145e+01  2.552249e+01  # O CO2
    152      51    2   0.651200  5.420606e+00  4.194601e+01  2.551746e+01  # C CO2
    153      51    1  -0.325600  5.308601e+00  4.310058e+01  2.551244e+01  # O CO2
    154      52    1  -0.325600  5.415445e+00  1.338506e+01  1.644053e+01  # O CO2
    155      52    2   0.651200  6.245210e+00  1.291684e+01  1.710224e+01  # C CO2
    156      52    1  -0.325600  7.074976e+00  1.244862e+01  1.776396e+01  # O CO2
    157      53    1  -0.325600  3.014245e+01  5.001428e+01  3.723222e+01  # O CO2
    158      53    2   0.651200  2.902021e+01  5.027721e+01  3.710164e+01  # C CO2
    159      53    1  -0.325600  2.789798e+01  5.054014e+01  3.697105e+01  # O CO2
    160      54    1  -0.325600  4.041450e+01  2.654817e+01  3.811950e+01  # O CO2
    161      54    2   0.651200  3.953435e+01  2.730045e+01  3.819031e+01  # C CO2
    162      54    1  -0.325600  3.865420e+01  2.805273e+01  3.826112e+01  # O CO2
    163      55    1  -0.325600  4.069418e+01  2.461814e+01  5.152471e+01  # O CO2
    164      55    2   0.651200  3.956126e+01  2.477006e+01  5.172223e+01  # C CO2
    165      55    1  -0.325600  3.842834e+01  2.492199e+01  5.191974e+01  # O CO2
    166      56    1  -0.325600  5.115062e+00  5.975143e+00  2.667386e+00  # O CO2
    167      56    2   0.651200  4.062281e+00  6.446030e+00  2.791952e+00  # C CO2
    168      56    1  -0.325600  3.009500e+00  6.916918e+00  2.916517e+00  # O CO2
    169      57    1  -0.325600  4.740363e+01  5.257576e+01  3.586017e+01  # O CO2
    170      57    2   0.651200  4.656797e+01  5.214132e+01  3.518303e+01  # C CO2
    171      57    1  -0.325600  4.573231e+01  5.170688e+01  3.450588e+01  # O CO2
    172      58    1  -0.325600  1.888881e+01  2.815159e+00  4.261876e+01  # O CO2
    173      58    2   0.651200  1.944277e+01  3.834078e+00  4.264180e+01  # C CO2
    174      58    1  -0.325600  1.999674e+01  4.852997e+00  4.266483e+01  # O CO2
    175      59    1  -0.325600  2.575483e+01  3.369782e+01  4.826017e+01  # O CO2
    176      59    2   0.651200  2.572796e+01  3.272521e+01  4.889176e+01  # C CO2
    177      59    1  -0.325600  2.570109e+01  3.175260e+01  4.952336e+01  # O CO2
    178      60    1  -0.325600  4.464693e+01  4.539194e+00  2.498092e+01  # O CO2
    179      60    2   0.651200  4.441273e+01  3.812087e+00  2.410796e+01  # C CO2
    180      60    1  -0.325600  4.417852e+01  3.084979e+00  2.323499e+01  # O CO2
    181      61    1  -0.325600  2.791050e+01  4.719236e+01  3.802159e+01  # O CO2
    182      61    2   0.651200  2.905181e+01  4.705357e+01  3.817574e+01  # C CO2
    183      61    1  -0.325600  3.019311e+01  4.691477e+01  3.832989e+01  # O CO2
    184      62    1  -0.325600  3.662812e+01  2.537182e+01  3.919554e+01  # O CO2
    185      62    2   0.651200  3.769207e+01  2.543261e+01  3.965370e+01  # C CO2
    186      62    1  -0.325600  3.875603e+01  2.549340e+01  4.011186e+01  # O CO2
    187      63    1  -0.325600  2.663183e+01  3.908182e+01  4.188859e+01  # O CO2
    188      63    2   0.651200  2.560583e+01  3.927423e+01  4.239445e+01  # C CO2
    189      63    1  -0.325600  2.457983e+01  3.946664e+01  4.290031e+01  # O CO2
    190      64    1  -0.325600  4.317746e+01  5.026473e+01  4.036089e+01  # O CO2
    191      64    2   0.651200  4.376104e+01  4.926585e+01  4.044611e+01  # C CO2
    192      64    1  -0.325600  4.434463e+01  4.826697e+01  4.053133e+01  # O CO2
    193      65    1  -0.325600  4.083892e+01  3.959436e+01  1.445832e+01  # O CO2
    194      65    2   0.651200  4.136583e+01  4.047253e+01  1.391353e+01  # C CO2
    195      65    1  -0.325600  4.189274e+01  4.135070e+01  1.336875e+01  # O CO2
    196      66    1  -0.325600  9.404849e+00  1.556862e+00  6.903795e+00  # O CO2
    197      66    2   0.651200  8.368985e+00  1.534553e+00  7.425417e+00  # C CO2
    198      66    1  -0.325600  7.333122e+00  1.512243e+00  7.947039e+00  # O CO2
    199      67    1  -0.325600  1.414434e+01  1.266244e+01  4.307338e+01  # O CO2
    200      67    2   0.651200  1.314692e+01  1.323741e+01  4.293137e+01  # C CO2
    201      67    1  -0.325600  1.214950e+01  1.381237e+01  4.278936e+01  # O CO2
    202      68    1  -0.325600  1.622664e+01  1.931761e+01  5.109153e+01  # O CO2
    203      68    2   0.651200  1.647150e+01  1.830609e+01  5.160386e+01  # C CO2
    204      68    1  -0.325600  1.671636e+01  1.729458e+01  5.211620e+01  # O CO2
    205      69    1  -0.325600  1.458755e+01  4.255629e+01  2.979209e+01  # O CO2
    206      69    2   0.651200  1.429001e+01  4.365308e+01  2.955945e+01  # C CO2
    207      69    1  -0.325600  1.399247e+01  4.474987e+01  2.932680e+01  # O CO2
    208      70    1  -0.325600  4.445396e+01  4.080528e+01  1.251846e+01  # O CO2
    209      70    2   0.651200  4.430899e+01  4.025679e+01  1.150666e+01  # C CO2
    210      70    1  -0.325600  4.416403e+01  3.970829e+01  1.049487e+01  # O CO2
    211      71    1  -0.325600  2.392265e+01  5.091757e+01  5.182719e+01  # O CO2
    212      71    2   0.651200  2.483678e+01  5.162518e+01  5.173104e+01  # C CO2
    213      71    1  -0.325600  2.575091e+01  5.233279e+01  5.163489e+01  # O CO2
    214      72    1  -0.325600  6.696087e+00  2.464748e+01  4.737367e+01  # O CO2
    215      72    2   0.651200  7.441270e+00  2.529467e+01  4.798314e+01  # C CO2
    216      72    1  -0.325600  8.186454e+00  2.594186e+01  4.859260e+01  # O CO2
    217      73    1  -0.325600  8.627653e+00  4.078074e+00  4.472049e+01  # O CO2
    218      73    2   0.651200  7.616536e+00  3.847046e+00  4.420101e+01  # C CO2
    219      73    1  -0.325600  6.605419e+00  3.616019e+00  4.368152e+01  # O CO2
    220      74    1  -0.325600  9.797547e+00  4.010632e+01  2.562361e+01  # O CO2
    221      74    2   0.651200  9.024249e+00  4.097031e+01  2.558981e+01  # C CO2
    222      74    1  -0.325600  8.250951e+00  4.183429e+01  2.555600e+01  # O CO2
    223      75    1  -0.325600  4.816908e+01  4.801747e+01  4.675793e+01  # O CO2
    224      75    2   0.651200  4.770582e+01  4.908091e+01  4.676713e+01  # C CO2
    225      75    1  -0.325600  4.724255e+01  5.014435e+01  4.677633e+01  # O CO2
    226      76    1  -0.325600  5.160487e+01  3.033566e+01  5.035505e+01  # O CO2
    227      76    2   0.651200  5.190072e+01  2.989867e+01  5.138806e+01  # C CO2
    228      76    1  -0.325600  5.219657e+01  2.946168e+01  5.242107e+01  # O CO2
    229      77    1  -0.325600  3.893376e+01  2.558402e+01  1.115818e+01  # O CO2
    230      77    2   0.651200  3.835873e+01  2.464169e+01  1.080188e+01  # C CO2
    231      77    1  -0.325600  3.778369e+01  2.369936e+01  1.044558e+01  # O CO2
    232      78    1  -0.325600  1.492858e+01  4.637129e+01  4.542220e+01  # O CO2
    233      78    2   0.651200  1.506766e+01  4.679536e+01  4.435149e+01  # C CO2
    234      78    1  -0.325600  1.520675e+01  4.721943e+01  4.328078e+01  # O CO2
    235      79    1  -0.325600  4.019624e+01  4.247518e+01  4.724910e+01  # O CO2
    236      79    2   0.651200  3.999654e+01  4.154996e+01  4.791968e+01  # C CO2
    237      79    1  -0.325600  3.979683e+01  4.062474e+01  4.859027e+01  # O CO2
    238      80    1  -0.325600  1.442798e+01  4.542728e+01  3.337859e+01  # O CO2
    239      80    2   0.651200  1.360577e+01  4.533611e+01  3.256542e+01  # C CO2
    240      80    1  -0.325600  1.278355e+01  4.524494e+01  3.175225e+01  # O CO2
    241      81    1  -0.325600  4.587670e+01  2.761935e+01  8.434379e+00  # O CO2
    242      81    2   0.651200  4.671555e+01  2.742607e+01  9.211918e+00  # C CO2
    243      81    1  -0.325600  4.755441e+01  2.723278e+01  9.989458e+00  # O CO2
    244      82    1  -0.325600  3.127574e+00  4.063263e+01  3.098869e+01  # O CO2
    245      82    2   0.651200  4.187808e+00  4.110236e+01  3.095944e+01  # C CO2
    246      82    1  -0.325600  5.248043e+00  4.157209e+01  3.093018e+01  # O CO2
    247      83    1  -0.325600  1.453687e+01  4.674852e+01  4.811844e+01  # O CO2
    248      83    2   0.651200  1.400463e+01  4.701996e+01  4.911274e+01  # C CO2
    249      83    1  -0.325600  1.347238e+01  4.729140e+01  5.010704e+01  # O CO2
    250      84    1  -0.325600  3.009070e+01  2.998748e+00  2.973262e+00  # O CO2
    251      84    2   0.651200  2.976736e+01  4.070689e+00  3.276566e+00  # C CO2
    252      84    1  -0.325600  2.944402e+01  5.142631e+00  3.579869e+00  # O CO2
    253      85    1  -0.325600  5.005412e+01  1.898008e+01  4.404969e+01  # O CO2
    254      85    2   0.651200  4.933943e+01  1.807049e+01  4.396341e+01  # C CO2
    255      85    1  -0.325600  4.862473e+01  1.716089e+01  4.387714e+01  # O CO2
    256      86    1  -0.325600  4.867650e+01  1.484418e+00  6.790851e+00  # O CO2
    257      86    2   0.651200  4.868700e+01  2.644265e+00  6.806523e+00  # C CO2
    258      86    1  -0.325600  4.869750e+01  3.804111e+00  6.822196e+00  # O CO2
    259      87    1  -0.325600  1.778716e+01  2.395513e+01  4.016734e+01  # O CO2
    260      87    2   0.651200  1.727871e+01  2.474231e+01  4.085101e+01  # C CO2
    261      87    1  -0.325600  1.677025e+01  2.552950e+01  4.153469e+01  # O CO2
    262      88    1  -0.325600  2.996549e+01  1.952640e+01  4.302408e+01  # O CO2
    263      88    2   0.651200  3.008940e+01  1.837426e+01  4.307698e+01  # C CO2
    264      88    1  -0.325600  3.021332e+01  1.722211e+01  4.312988e+01  # O CO2
    265      89    1  -0.325600  3.516444e+01  2.801526e+00  4.922510e+01  # O CO2
    266      89    2   0.651200  3.466099e+01  2.484305e+00  4.822935e+01  # C CO2
    267      89    1  -0.325600  3.415754e+01  2.167084e+00  4.723360e+01  # O CO2
    268      90    1  -0.325600  3.265700e+00  3.202745e+01  5.222184e+00  # O CO2
    269      90    2   0.651200  3.146537e+00  3.258615e+01  4.212602e+00  # C CO2
    270      90    1  -0.325600  3.027374e+00  3.314485e+01  3.203020e+00  # O CO2
    271      91    1  -0.325600  5.091996e+01  5.120346e+01  1.667209e+01  # O CO2
    272      91    2   0.651200  4.999133e+01  5.188846e+01  1.679055e+01  # C CO2
    273      91    1  -0.325600  4.906271e+01  5.257346e+01  1.690900e+01  # O CO2
    274      92    1  -0.325600  3.941890e+01  3.711428e+01  2.858431e+01  # O CO2
    275      92    2   0.651200  3.842877e+01  3.662194e+01  2.893480e+01  # C CO2
    276      92    1  -0.325600  3.743865e+01  3.612959e+01  2.928530e+01  # O CO2
    277      93    1  -0.325600  1.046911e+01  1.967032e+01  4.814327e+01  # O CO2
    278      93    2   0.651200  1.074124e+01  2.079592e+01  4.807565e+01  # C CO2
    279      93    1  -0.325600  1.101336e+01  2.192152e+01  4.800803e+01  # O CO2
    280      94    1  -0.325600  1.695633e+01  3.325108e+01  2.600069e+01  # O CO2
    281      94    2   0.651200  1.786254e+01  3.340733e+01  2.670778e+01  # C CO2
    282      94    1  -0.325600  1.876874e+01  3.356357e+01  2.741487e+01  # O CO2
    283      95    1  -0.325600  4.781114e+01  6.924430e+00  1.113021e+01  # O CO2
    284      95    2   0.651200  4.734427e+01  7.448483e+00  1.020663e+01  # C CO2
    285      95    1  -0.325600  4.687740e+01  7.972536e+00  9.283049e+00  # O CO2
    286      96    1  -0.325600  2.759660e+01  2.235964e+01  3.841513e+01  # O CO2
    287      96    2   0.651200  2.729577e+01  2.330887e+01  3.782010e+01  # C CO2
    288      96    1  -0.325600  2.699493e+01  2.425810e+01  3.722506e+01  # O CO2
    289      97    1  -0.325600  9.882645e+00  8.645712e+00  2.693628e+00  # O CO2
    290      97    2   0.651200  8.986897e+00  8.857453e+00  3.399604e+00  # C CO2
    291      97    1  -0.325600  8.091149e+00  9.069194e+00  4.105579e+00  # O CO2
    292      98    1  -0.325600  5.130774e+01  2.509710e+01  2.352471e+01  # O CO2
    293      98    2   0.651200  5.036071e+01  2.497401e+01  2.286623e+01  # C CO2
    294      98    1  -0.325600  4.941369e+01  2.485092e+01  2.220776e+01  # O CO2
    295      99    1  -0.325600  1.943624e+01  2.181092e+01  4.603789e+01  # O CO2
    296      99    2   0.651200  1.853227e+01  2.253685e+01  4.607624e+01  # C CO2
    297      99    1  -0.325600  1.762831e+01  2.326277e+01  4.611458e+01  # O CO2
    298     100    1  -0.325600  5.123251e+01  3.450389e+01  7.727771e+00  # O CO2
    299     100    2   0.651200  5.031635e+01  3.517290e+01  7.970007e+00  # C CO2
    300     100    1  -0.325600  4.940019e+01  3.584191e+01  8.212243e+00  # O CO2
    301     101    1  -0.325600  3.058529e+00  3.550653e+01  5.091949e+01  # O CO2
    302     101    2   0.651200  2.364951e+00  3.484977e+01  5.026130e+01  # C CO2
    303     101    1  -0.325600  1.671373e+00  3.419302e+01  4.960311e+01  # O CO2
    304     102    1  -0.325600  3.763178e+01  1.842035e+01  4.907328e+01  # O CO2
    305     102    2   0.651200  3.790328e+01  1.949113e+01  4.942728e+01  # C CO2
    306     102    1  -0.325600  3.817478e+01  2.056190e+01  4.978129e+01  # O CO2
    307     103    1  -0.325600  2.021306e+01  8.391738e+00  1.696956e+01  # O CO2
    308     103    2   0.651200  2.044505e+01  7.261645e+00  1.709069e+01  # C CO2
    309     103    1  -0.325600  2.067703e+01  6.131552e+00  1.721182e+01  # O CO2
    310     104    1  -0.325600  5.005570e+01  1.741332e+01  5.099409e+01  # O CO2
    311     104    2   0.651200  5.075169e+01  1.791468e+01  5.177501e+01  # C CO2
    312     104    1  -0.325600  5.144767e+01  1.841606e+01  5.255593e+01  # O CO2
    313     105    1  -0.325600  3.783529e+01  4.435485e+01  2.688700e+00  # O CO2
    314     105    2   0.651200  3.670704e+01  4.409381e+01  2.755750e+00  # C CO2
    315     105    1  -0.325600  3.557878e+01  4.383277e+01  2.822801e+00  # O CO2
    316     106    1  -0.325600  2.142665e+01  2.488739e+01  1.215773e+01  # O CO2
    317     106    2   0.651200  2.257911e+01  2.486004e+01  1.202860e+01  # C CO2
    318     106    1  -0.325600  2.373158e+01  2.483269e+01  1.189947e+01  # O CO2
    319     107    1  -0.325600  2.806882e+01  3.122514e+01  3.786405e+01  # O CO2
    320     107    2   0.651200  2.918925e+01  3.092474e+01  3.786490e+01  # C CO2
    321     107    1  -0.325600  3.030968e+01  3.062434e+01  3.786576e+01  # O CO2
    322     108    1  -0.325600  2.152155e+01  5.257724e+01  3.223943e+01  # O CO2
    323     108    2   0.651200  2.101965e+01  5.153539e+01  3.233029e+01  # C CO2
    324     108    1  -0.325600  2.051775e+01  5.049355e+01  3.242114e+01  # O CO2
    325     109    1  -0.325600  5.576759e+00  8.810710e+00  2.212629e+01  # O CO2
    326     109    2   0.651200  6.615323e+00  8.493071e+00  2.171874e+01  # C CO2
    327     109    1  -0.325600  7.653887e+00  8.175432e+00  2.131120e+01  # O CO2
    328     110    1  -0.325600  6.377126e+00  4.474296e+01  2.779101e+01  # O CO2
    329     110    2   0.651200  6.000333e+00  4.369261e+01  2.810785e+01  # C CO2
    330     110    1  -0.325600  5.623540e+00  4.264225e+01  2.842469e+01  # O CO2
    331     111    1  -0.325600  1.588816e+01  4.391742e+01  9.108551e+00  # O CO2
    332     111    2   0.651200  1.685917e+01  4.453295e+01  8.954081e+00  # C CO2
    333     111    1  -0.325600  1.783018e+01  4.514848e+01  8.799612e+00  # O CO2
    334     112    1  -0.325600  4.568661e+01  8.062248e+00  1.451030e+01  # O CO2
    335     112    2   0.651200  4.682734e+01  7.851742e+00  1.451534e+01  # C CO2
    336     112    1  -0.325600  4.796807e+01  7.641237e+00  1.452038e+01  # O CO2
    337     113    1  -0.325600  2.733945e+01  4.151700e+01  5.081258e+01  # O CO2
    338     113    2   0.651200  2.663561e+01  4.198521e+01  5.001822e+01  # C CO2
    339     113    1  -0.325600  2.593177e+01  4.245341e+01  4.922387e+01  # O CO2
    340     114    1  -0.325600  2.205823e+01  1.112421e+01  2.399693e+01  # O CO2
    341     114    2   0.651200  2.247974e+01  1.117133e+01  2.291725e+01  # C CO2
    342     114    1  -0.325600  2.290125e+01  1.121844e+01  2.183757e+01  # O CO2
    343     115    1  -0.325600  1.884973e+01  2.527199e+01  1.013077e+01  # O CO2
    344     115    2   0.651200  1.869387e+01  2.583376e+01  9.127917e+00  # C CO2
    345     115    1  -0.325600  1.853801e+01  2.639553e+01  8.125060e+00  # O CO2
    346     116    1  -0.325600  9.250853e+00  4.071535e+01  9.987602e+00  # O CO2
    347     116    2   0.651200  8.844686e+00  4.013004e+01  9.072159e+00  # C CO2
    348     116    1  -0.325600  8.438518e+00  3.954473e+01  8.156715e+00  # O CO2
    349     117    1  -0.325600  1.649095e+01  2.462193e+01  3.235884e+01  # O CO2
    350     117    2   0.651200  1.534942e+01  2.479741e+01  3.246710e+01  # C CO2
    351     117    1  -0.325600  1.420789e+01  2.497288e+01  3.257535e+01  # O CO2
    352     118    1  -0.325600  2.038642e+01  3.207049e+01  1.063051e+01  # O CO2
    353     118    2   0.651200  1.927837e+01  3.233970e+01  1.041756e+01  # C CO2
    354     118    1  -0.325600  1.817032e+01  3.260892e+01  1.020462e+01  # O CO2
    355     119    1  -0.325600  1.166026e+01  2.576467e+01  1.975595e+01  # O CO2
    356     119    2   0.651200  1.146539e+01  2.512671e+01  2.070496e+01  # C CO2
    357     119    1  -0.325600  1.127052e+01  2.448874e+01  2.165397e+01  # O CO2
    358     120    1  -0.325600  2.884173e+01  4.672221e+01  3.387731e+01  # O CO2
    359     120    2   0.651200  2.921423e+01  4.781917e+01  3.381787e+01  # C CO2