LAMMPS (2 Aug 2023)
WARNING: Using I/O redirection is unreliable with parallel runs. Better to use the -in switch to read input files. (../lammps.cpp:537)
Reading data file ...
  orthogonal box = (0 0 0) to (28.902617 28.902617 192.68411)
  2 by 2 by 9 MPI processor grid
  reading atoms ...
  6000 atoms
  reading velocities ...
  6000 velocities
  scanning bonds ...
  1 = max bonds/atom
  scanning angles ...
  1 = max angles/atom
  reading bonds ...
  4000 bonds
  reading angles ...
  2000 angles
Finding 1-2 1-3 1-4 neighbors ...
  special bond factors lj:    0        0        0       
  special bond factors coul:  0        0        0       
     2 = max # of 1-2 neighbors
     1 = max # of 1-3 neighbors
     1 = max # of 1-4 neighbors
     2 = max # of special neighbors
  special bonds CPU = 0.002 seconds
  read_data CPU = 0.651 seconds
Step T_hot T_cold
Step Temp Pressure Total_Energy Volume Density x_length z_length Total_Heat_Flux
PPPM initialization ...
  using 12-bit tables for long-range coulomb (../kspace.cpp:342)
  G vector (1/distance) = 0.26860453
  grid = 32 32 128
  stencil order = 5
  estimated absolute RMS force accuracy = 0.00039160846
  estimated relative force accuracy = 1.1793172e-06
  using double precision KISS FFT
  3d grid and FFT values/proc = 13750 4096
Generated 1 of 1 mixed pair_coeff terms from arithmetic mixing rule
Neighbor list info ...
  update: every = 1 steps, delay = 0 steps, check = yes
  max neighbors/atom: 2000, page size: 100000
  master list distance cutoff = 15
  ghost atom cutoff = 15
  binsize = 7.5, bins = 4 4 26
  1 neighbor lists, perpetual/occasional/extra = 1 0 0
  (1) pair lj/cut/coul/long, perpetual
      attributes: half, newton on
      pair build: half/bin/newton
      stencil: half/bin/3d
      bin: standard
Setting up Verlet run ...
  Unit style    : real
  Current step  : 0
  Time step     : 0.5
0 0.0000 0.0000
0 296.976334981507 -51.9437605356355 2736.5931603154899676 160960.843986232 0.90804056235462204949 28.902616908393099493 192.68411272262099487 0
Per MPI rank memory allocation (min/avg/max) = 8.176 | 8.218 | 8.239 Mbytes
   Step           Dt            Temp          Press          TotEng         Volume        Density        E_delta    
         0   0.5            296.97633     -51.943761      2736.5932      160960.84      0.90804056     0            
4000 300.464063729473 -230.943211896995 2736.9238065820900374 160960.843986232 0.90804056235462204949 28.902616908393099493 192.68411272262099487 5.2052317680370396857
      4000   0.5            300.46406     -230.94321      2736.9238      160960.84      0.90804056     5.2052318    
8000 296.298925769737 230.387364866089 2736.807696861129898 160960.843986232 0.90804056235462204949 28.902616908393099493 192.68411272262099487 9.8071937928964096898
      8000   0.5            296.29893      230.38736      2736.8077      160960.84      0.90804056     9.8071938    
10000 286.2619 313.2540
12000 297.314203298914 -232.359893289966 2736.6070197774602093 160960.843986232 0.90804056235462204949 28.902616908393099493 192.68411272262099487 13.318987731385899309
     12000   0.5            297.3142      -232.35989      2736.607       160960.84      0.90804056     13.318988    
16000 300.357326644456 743.493732060227 2736.4930942318101188 160960.843986232 0.90804056235462204949 28.902616908393099493 192.68411272262099487 16.016889253605700816
     16000   0.5            300.35733      743.49373      2736.4931      160960.84      0.90804056     16.016889    
20000 293.0503 289.8302
20000 299.112334746261 719.047252064838 2736.6590022026798579 160960.843986232 0.90804056235462204949 28.902616908393099493 192.68411272262099487 20.545942489737999637
     20000   0.5            299.11233      719.04725      2736.659       160960.84      0.90804056     20.545942    
24000 298.829769931181 483.15213868651 2736.6641433335098554 160960.843986232 0.90804056235462204949 28.902616908393099493 192.68411272262099487 23.732468231564698868
     24000   0.5            298.82977      483.15214      2736.6641      160960.84      0.90804056     23.732468    
28000 295.526862764109 575.668540772538 2736.9329995750299531 160960.843986232 0.90804056235462204949 28.902616908393099493 192.68411272262099487 26.608117029937201181
     28000   0.5            295.52686      575.66854      2736.933       160960.84      0.90804056     26.608117    
30000 296.6962 292.3711
32000 299.425686591392 409.718304214562 2736.672636554069868 160960.843986232 0.90804056235462204949 28.902616908393099493 192.68411272262099487 29.08086749971250029
     32000   0.5            299.42569      409.7183       2736.6726      160960.84      0.90804056     29.080867    
36000 300.71370711631 180.517320589219 2736.6006639956999607 160960.843986232 0.90804056235462204949 28.902616908393099493 192.68411272262099487 33.009657677467096448
     36000   0.5            300.71371      180.51732      2736.6007      160960.84      0.90804056     33.009658    
40000 294.4555 283.4900
40000 299.055361826761 354.668286330229 2736.6202934716898199 160960.843986232 0.90804056235462204949 28.902616908393099493 192.68411272262099487 36.009374963478599341
     40000   0.5            299.05536      354.66829      2736.6203      160960.84      0.90804056     36.009375    
44000 298.674799343854 555.636383143329 2736.7199990247499954 160960.843986232 0.90804056235462204949 28.902616908393099493 192.68411272262099487 38.838058598469096694
     44000   0.5            298.6748       555.63638      2736.72        160960.84      0.90804056     38.838059    
48000 297.041897330159 -82.001594066707 2736.8595510285399541 160960.843986232 0.90804056235462204949 28.902616908393099493 192.68411272262099487 42.241355594918502447
     48000   0.5            297.0419      -82.001594      2736.8596      160960.84      0.90804056     42.241356    
50000 297.1701 287.0114
52000 296.332647076037 881.942609093214 2736.7449200591199769 160960.843986232 0.90804056235462204949 28.902616908393099493 192.68411272262099487 45.999750897238499192
     52000   0.5            296.33265      881.94261      2736.7449      160960.84      0.90804056     45.999751    
56000 300.400270703347 -184.876596404713 2736.6055546995698933 160960.843986232 0.90804056235462204949 28.902616908393099493 192.68411272262099487 48.955124616632296863
     56000   0.5            300.40027     -184.8766       2736.6056      160960.84      0.90804056     48.955125    
60000 305.3037 288.2637
60000 298.980272110497 401.527461417247 2737.0936530150302133 160960.843986232 0.90804056235462204949 28.902616908393099493 192.68411272262099487 52.248307785533796732
     60000   0.5            298.98027      401.52746      2737.0937      160960.84      0.90804056     52.248308    
64000 297.138925294884 153.27578382626 2736.9527352742998119 160960.843986232 0.90804056235462204949 28.902616908393099493 192.68411272262099487 55.743551013364502467
     64000   0.5            297.13893      153.27578      2736.9527      160960.84      0.90804056     55.743551    
68000 301.178503149872 175.371102698143 2736.8712081708599726 160960.843986232 0.90804056235462204949 28.902616908393099493 192.68411272262099487 59.062658285661896684
     68000   0.5            301.1785       175.3711       2736.8712      160960.84      0.90804056     59.062658    
70000 293.4198 292.6154
72000 300.015903986506 -179.832782085384 2736.7997345446401596 160960.843986232 0.90804056235462204949 28.902616908393099493 192.68411272262099487 61.448087197589103425
     72000   0.5            300.0159      -179.83278      2736.7997      160960.84      0.90804056     61.448087    
76000 295.076200095065 -246.746738092878 2736.971831461599777 160960.843986232 0.90804056235462204949 28.902616908393099493 192.68411272262099487 64.397378625923806794
     76000   0.5            295.0762      -246.74674      2736.9718      160960.84      0.90804056     64.397379    
80000 289.0478 282.8282
80000 302.43135018822 625.751163934731 2736.9880714424098187 160960.843986232 0.90804056235462204949 28.902616908393099493 192.68411272262099487 69.361657033397406735
     80000   0.5            302.43135      625.75116      2736.9881      160960.84      0.90804056     69.361657    
84000 297.880643514507 513.781465090218 2736.9620156200398924 160960.843986232 0.90804056235462204949 28.902616908393099493 192.68411272262099487 72.58466414048669435
     84000   0.5            297.88064      513.78147      2736.962       160960.84      0.90804056     72.584664    
88000 294.755247688155 286.950203398023 2737.1140416727398588 160960.843986232 0.90804056235462204949 28.902616908393099493 192.68411272262099487 74.679483313557099677
     88000   0.5            294.75525      286.9502       2737.114       160960.84      0.90804056     74.679483    
90000 315.1377 273.2912
92000 298.05877541967 409.998031024452 2737.1798144580598091 160960.843986232 0.90804056235462204949 28.902616908393099493 192.68411272262099487 78.388325467830995308
     92000   0.5            298.05878      409.99803      2737.1798      160960.84      0.90804056     78.388325    
96000 298.051982741407 -392.985248102271 2737.3334227800301051 160960.843986232 0.90804056235462204949 28.902616908393099493 192.68411272262099487 82.181918516155405996
     96000   0.5            298.05198     -392.98525      2737.3334      160960.84      0.90804056     82.181919    
100000 312.2170 303.2569
100000 296.9050426537 -388.925228756982 2737.2521858404898012 160960.843986232 0.90804056235462204949 28.902616908393099493 192.68411272262099487 84.950680348537602526
    100000   0.5            296.90504     -388.92523      2737.2522      160960.84      0.90804056     84.95068     
104000 295.544188796814 622.28351870755 2737.1352403688401864 160960.843986232 0.90804056235462204949 28.902616908393099493 192.68411272262099487 87.335650415245495992
    104000   0.5            295.54419      622.28352      2737.1352      160960.84      0.90804056     87.33565     
108000 300.620214753575 -276.98408921525 2737.0885249648099489 160960.843986232 0.90804056235462204949 28.902616908393099493 192.68411272262099487 90.170261182121706156
    108000   0.5            300.62021     -276.98409      2737.0885      160960.84      0.90804056     90.170261    
110000 307.6276 281.6122
112000 299.063322982093 184.574694184629 2737.0301160052899831 160960.843986232 0.90804056235462204949 28.902616908393099493 192.68411272262099487 93.061276587218401346
    112000   0.5            299.06332      184.57469      2737.0301      160960.84      0.90804056     93.061277    
116000 299.237692852081 251.274096403959 2736.9658880451002005 160960.843986232 0.90804056235462204949 28.902616908393099493 192.68411272262099487 95.586811854199098093
    116000   0.5            299.23769      251.2741       2736.9659      160960.84      0.90804056     95.586812    
120000 308.9489 272.7736
120000 297.251511708026 710.395397651764 2737.1634304467102083 160960.843986232 0.90804056235462204949 28.902616908393099493 192.68411272262099487 98.821114100566902039
    120000   0.5            297.25151      710.3954       2737.1634      160960.84      0.90804056     98.821114    
124000 297.905744455994 570.120451057139 2737.2631358541898408 160960.843986232 0.90804056235462204949 28.902616908393099493 192.68411272262099487 102.76393637632300226
    124000   0.5            297.90574      570.12045      2737.2631      160960.84      0.90804056     102.76394    
128000 294.800307206561 303.435339312189 2737.3550260578899724 160960.843986232 0.90804056235462204949 28.902616908393099493 192.68411272262099487 104.96299937101099431
    128000   0.5            294.80031      303.43534      2737.355       160960.84      0.90804056     104.963      
130000 317.0397 275.5562
132000 300.690200293252 151.73487443202 2737.2499951260401758 160960.843986232 0.90804056235462204949 28.902616908393099493 192.68411272262099487 108.119197603594003
    132000   0.5            300.6902       151.73487      2737.25        160960.84      0.90804056     108.1192     
136000 298.80834825082 -249.40633106941 2737.1921642728398183 160960.843986232 0.90804056235462204949 28.902616908393099493 192.68411272262099487 111.64992634051000664
    136000   0.5            298.80835     -249.40633      2737.1922      160960.84      0.90804056     111.64993    
140000 304.7385 279.5330
140000 297.262687753738 817.789600843586 2737.249958832880111 160960.843986232 0.90804056235462204949 28.902616908393099493 192.68411272262099487 114.71808413633999635
    140000   0.5            297.26269      817.7896       2737.25        160960.84      0.90804056     114.71808    
144000 299.277591324795 186.246420499947 2737.265255458989941 160960.843986232 0.90804056235462204949 28.902616908393099493 192.68411272262099487 118.1391421912459947
    144000   0.5            299.27759      186.24642      2737.2653      160960.84      0.90804056     118.13914    
148000 295.56778580922 343.44826725591 2737.5581147575999239 160960.843986232 0.90804056235462204949 28.902616908393099493 192.68411272262099487 121.30905230159899588
    148000   0.5            295.56779      343.44827      2737.5581      160960.84      0.90804056     121.30905    
150000 309.4762 265.7590
152000 293.493281726611 484.115292375141 2737.4612256827999772 160960.843986232 0.90804056235462204949 28.902616908393099493 192.68411272262099487 124.46766184372900454
    152000   0.5            293.49328      484.11529      2737.4612      160960.84      0.90804056     124.46766    
156000 296.942202751114 467.552585879459 2737.3344240226101647 160960.843986232 0.90804056235462204949 28.902616908393099493 192.68411272262099487 128.07952373174899208
    156000   0.5            296.9422       467.55259      2737.3344      160960.84      0.90804056     128.07952    
160000 302.8996 280.9171
160000 297.868264574517 117.13107044154 2737.408616419359987 160960.843986232 0.90804056235462204949 28.902616908393099493 192.68411272262099487 130.72772058815300511
    160000   0.5            297.86826      117.13107      2737.4086      160960.84      0.90804056     130.72772    
164000 294.658980777065 339.342479210526 2737.4510758598298708 160960.843986232 0.90804056235462204949 28.902616908393099493 192.68411272262099487 133.70795236311698773
    164000   0.5            294.65898      339.34248      2737.4511      160960.84      0.90804056     133.70795    
168000 296.557119043529 740.396786442423 2737.223973388649938 160960.843986232 0.90804056235462204949 28.902616908393099493 192.68411272262099487 136.77045237014701229
    168000   0.5            296.55712      740.39679      2737.224       160960.84      0.90804056     136.77045    
170000 310.5077 290.7163
172000 297.548006256905 48.2513188594656 2737.0883261023200248 160960.843986232 0.90804056235462204949 28.902616908393099493 192.68411272262099487 140.66915246251500093
    172000   0.5            297.54801      48.251319      2737.0883      160960.84      0.90804056     140.66915    
176000 299.498032381181 -187.374332703099 2737.0631997984801274 160960.843986232 0.90804056235462204949 28.902616908393099493 192.68411272262099487 143.17990923896900313
    176000   0.5            299.49803     -187.37433      2737.0632      160960.84      0.90804056     143.17991    
180000 301.3970 271.7157
180000 298.813109163935 627.027823385328 2736.8581889086699448 160960.843986232 0.90804056235462204949 28.902616908393099493 192.68411272262099487 146.11089845811500254
    180000   0.5            298.81311      627.02782      2736.8582      160960.84      0.90804056     146.1109     
184000 297.391050001177 983.796940243122 2736.8949307664702246 160960.843986232 0.90804056235462204949 28.902616908393099493 192.68411272262099487 150.13037951789598878
    184000   0.5            297.39105      983.79694      2736.8949      160960.84      0.90804056     150.13038    
188000 301.016383643561 113.743072801113 2736.9956316923398845 160960.843986232 0.90804056235462204949 28.902616908393099493 192.68411272262099487 153.22368013816299026
    188000   0.5            301.01638      113.74307      2736.9956      160960.84      0.90804056     153.22368    
190000 299.9896 264.1598
192000 296.253846580605 423.795864252826 2737.1732720709001114 160960.843986232 0.90804056235462204949 28.902616908393099493 192.68411272262099487 156.98172539351401156
    192000   0.5            296.25385      423.79586      2737.1733      160960.84      0.90804056     156.98173    
196000 298.058525835648 368.59047948217 2737.2474408249399858 160960.843986232 0.90804056235462204949 28.902616908393099493 192.68411272262099487 160.71412558426499118
    196000   0.5            298.05853      368.59048      2737.2474      160960.84      0.90804056     160.71413    
200000 311.9189 275.5000
200000 295.252918416085 710.771485316747 2737.0226477755199994 160960.843986232 0.90804056235462204949 28.902616908393099493 192.68411272262099487 164.51846295240798668
    200000   0.5            295.25292      710.77149      2737.0226      160960.84      0.90804056     164.51846    
204000 300.854893087293 188.234642971002 2736.8472556205601904 160960.843986232 0.90804056235462204949 28.902616908393099493 192.68411272262099487 167.74151987260100327
    204000   0.5            300.85489      188.23464      2736.8473      160960.84      0.90804056     167.74152    
208000 299.103833647144 274.046413827279 2736.9293441056302072 160960.843986232 0.90804056235462204949 28.902616908393099493 192.68411272262099487 172.28174731044100554
    208000   0.5            299.10383      274.04641      2736.9293      160960.84      0.90804056     172.28175    
210000 308.2883 283.1932
212000 298.589991708836 -222.442635893389 2737.1336603036997985 160960.843986232 0.90804056235462204949 28.902616908393099493 192.68411272262099487 174.68198701214200241
    212000   0.5            298.58999     -222.44264      2737.1337      160960.84      0.90804056     174.68199    
216000 296.390811850846 229.259326764292 2737.003411284520098 160960.843986232 0.90804056235462204949 28.902616908393099493 192.68411272262099487 177.90173921484401376
    216000   0.5            296.39081      229.25933      2737.0034      160960.84      0.90804056     177.90174    
220000 321.9158 275.2433
220000 298.563684032113 -396.928954433595 2737.0866478850498424 160960.843986232 0.90804056235462204949 28.902616908393099493 192.68411272262099487 181.7533727982209939
    220000   0.5            298.56368     -396.92895      2737.0866      160960.84      0.90804056     181.75337    
224000 296.942146416708 101.951243440967 2737.1915669016498214 160960.843986232 0.90804056235462204949 28.902616908393099493 192.68411272262099487 185.71270040122101364
    224000   0.5            296.94215      101.95124      2737.1916      160960.84      0.90804056     185.7127     
228000 295.072140027833 335.915415892398 2737.3767557319001753 160960.843986232 0.90804056235462204949 28.902616908393099493 192.68411272262099487 189.21848575051799912
    228000   0.5            295.07214      335.91542      2737.3768      160960.84      0.90804056     189.21849    
230000 317.3766 276.8988
232000 298.41538091559 43.5337025371701 2737.2991214910298368 160960.843986232 0.90804056235462204949 28.902616908393099493 192.68411272262099487 192.51539887035198717
    232000   0.5            298.41538      43.533703      2737.2991      160960.84      0.90804056     192.5154     
236000 298.427937238565 77.1867260668034 2737.0573039515797973 160960.843986232 0.90804056235462204949 28.902616908393099493 192.68411272262099487 195.21487201708299608
    236000   0.5            298.42794      77.186726      2737.0573      160960.84      0.90804056     195.21487    
240000 306.3387 273.9926
240000 297.517320022904 943.678147389964 2736.8109989373801909 160960.843986232 0.90804056235462204949 28.902616908393099493 192.68411272262099487 198.2258520949330034
    240000   0.5            297.51732      943.67815      2736.811       160960.84      0.90804056     198.22585    
244000 298.096424973642 310.312465524457 2736.8484026618798453 160960.843986232 0.90804056235462204949 28.902616908393099493 192.68411272262099487 202.11039139600998737
    244000   0.5            298.09642      310.31247      2736.8484      160960.84      0.90804056     202.11039    
248000 298.061845617477 -33.1571020325918 2736.7767018799299876 160960.843986232 0.90804056235462204949 28.902616908393099493 192.68411272262099487 205.47609626917198966
    248000   0.5            298.06185     -33.157102      2736.7767      160960.84      0.90804056     205.4761     
250000 301.5534 266.2263
252000 298.254748123509 858.489018700491 2737.0089982485801556 160960.843986232 0.90804056235462204949 28.902616908393099493 192.68411272262099487 210.56101415458201132
    252000   0.5            298.25475      858.48902      2737.009       160960.84      0.90804056     210.56101    
256000 302.572877678479 388.690303250685 2736.8994529055898965 160960.843986232 0.90804056235462204949 28.902616908393099493 192.68411272262099487 214.3604583086400055
    256000   0.5            302.57288      388.6903       2736.8995      160960.84      0.90804056     214.36046    
260000 297.4555 278.2670
260000 296.410425538396 475.374426572214 2737.1551317263802048 160960.843986232 0.90804056235462204949 28.902616908393099493 192.68411272262099487 217.890428583278009
    260000   0.5            296.41043      475.37443      2737.1551      160960.84      0.90804056     217.89043    
264000 300.777908190767 394.923154699619 2736.8471112616398386 160960.843986232 0.90804056235462204949 28.902616908393099493 192.68411272262099487 221.44145434598300426
    264000   0.5            300.77791      394.92315      2736.8471      160960.84      0.90804056     221.44145    
268000 297.045381279154 547.644032159088 2737.0219237896599225 160960.843986232 0.90804056235462204949 28.902616908393099493 192.68411272262099487 224.50248677945299391
    268000   0.5            297.04538      547.64403      2737.0219      160960.84      0.90804056     224.50249    
270000 309.0404 279.1473
272000 303.066259814741 470.73376273663 2737.000889547639872 160960.843986232 0.90804056235462204949 28.902616908393099493 192.68411272262099487 228.080494003772003
    272000   0.5            303.06626      470.73376      2737.0009      160960.84      0.90804056     228.08049    
276000 297.190828973911 335.941886967449 2737.1241989144800755 160960.843986232 0.90804056235462204949 28.902616908393099493 192.68411272262099487 233.69118944331600574
    276000   0.5            297.19083      335.94189      2737.1242      160960.84      0.90804056     233.69119    
280000 309.1559 273.7022
280000 297.766439203267 -419.790290608776 2737.1987053200600712 160960.843986232 0.90804056235462204949 28.902616908393099493 192.68411272262099487 236.79260775683800944
    280000   0.5            297.76644     -419.79029      2737.1987      160960.84      0.90804056     236.79261    
284000 296.610845216698 126.075041128357 2737.1935832501799268 160960.843986232 0.90804056235462204949 28.902616908393099493 192.68411272262099487 240.36679251582899042
    284000   0.5            296.61085      126.07504      2737.1936      160960.84      0.90804056     240.36679    
288000 298.832085081465 192.820569250083 2737.0410114442302074 160960.843986232 0.90804056235462204949 28.902616908393099493 192.68411272262099487 244.83306699225599345
    288000   0.5            298.83209      192.82057      2737.041       160960.84      0.90804056     244.83307    
290000 300.2220 271.1656
292000 296.840301889341 515.443522334475 2737.1651294097800928 160960.843986232 0.90804056235462204949 28.902616908393099493 192.68411272262099487 248.60367141102699406
    292000   0.5            296.8403       515.44352      2737.1651      160960.84      0.90804056     248.60367    
296000 296.446536242714 510.526081178799 2737.2927072190700528 160960.843986232 0.90804056235462204949 28.902616908393099493 192.68411272262099487 252.10725002524401361
    296000   0.5            296.44654      510.52608      2737.2927      160960.84      0.90804056     252.10725    
300000 309.9134 273.4418
300000 300.18517054366 183.804003864383 2737.0465180059500199 160960.843986232 0.90804056235462204949 28.902616908393099493 192.68411272262099487 254.71834923390798622
    300000   0.5            300.18517      183.804        2737.0465      160960.84      0.90804056     254.71835    
304000 300.10053643436 -132.833082477809 2737.0151109715798157 160960.843986232 0.90804056235462204949 28.902616908393099493 192.68411272262099487 258.83526573728101994
    304000   0.5            300.10054     -132.83308      2737.0151      160960.84      0.90804056     258.83527    
308000 300.111567862278 362.835835612935 2737.2089048718798949 160960.843986232 0.90804056235462204949 28.902616908393099493 192.68411272262099487 263.37537572675500996
    308000   0.5            300.11157      362.83584      2737.2089      160960.84      0.90804056     263.37538    
310000 312.3377 289.8783
312000 297.587000872658 621.194114824152 2737.0419833965502221 160960.843986232 0.90804056235462204949 28.902616908393099493 192.68411272262099487 267.08943811896898524
    312000   0.5            297.587        621.19411      2737.042       160960.84      0.90804056     267.08944    
316000 302.520625297404 314.150506705475 2736.8356596110897954 160960.843986232 0.90804056235462204949 28.902616908393099493 192.68411272262099487 270.7568684893730051
    316000   0.5            302.52063      314.15051      2736.8357      160960.84      0.90804056     270.75687    
320000 309.8993 281.0273
320000 297.694093750767 298.188827997042 2737.032020472539898 160960.843986232 0.90804056235462204949 28.902616908393099493 192.68411272262099487 273.16275739676899548
    320000   0.5            297.69409      298.18883      2737.032       160960.84      0.90804056     273.16276    
324000 298.017949382449 253.979064625898 2736.8086486916099602 160960.843986232 0.90804056235462204949 28.902616908393099493 192.68411272262099487 278.37542835929701823
    324000   0.5            298.01795      253.97906      2736.8086      160960.84      0.90804056     278.37543    
328000 294.30368268992 178.069476375862 2737.4754233294502228 160960.843986232 0.90804056235462204949 28.902616908393099493 192.68411272262099487 281.21348639088500931
    328000   0.5            294.30368      178.06948      2737.4754      160960.84      0.90804056     281.21349    
330000 324.3961 274.4201
332000 295.158480146337 -87.8654000458508 2737.4527521894001438 160960.843986232 0.90804056235462204949 28.902616908393099493 192.68411272262099487 284.47051735841097297
    332000   0.5            295.15848     -87.8654        2737.4528      160960.84      0.90804056     284.47052    
336000 294.514172246712 703.781083052075 2737.0913490424200063 160960.843986232 0.90804056235462204949 28.902616908393099493 192.68411272262099487 287.34707876953598316
    336000   0.5            294.51417      703.78108      2737.0913      160960.84      0.90804056     287.34708    
340000 322.0296 284.7947
340000 298.395809666727 283.140827902187 2737.0766503731902048 160960.843986232 0.90804056235462204949 28.902616908393099493 192.68411272262099487 292.74524389941097979
    340000   0.5            298.39581      283.14083      2737.0767      160960.84      0.90804056     292.74524    
344000 300.331509666668 500.202882137044 2737.1946548985702066 160960.843986232 0.90804056235462204949 28.902616908393099493 192.68411272262099487 296.29851015701302686
    344000   0.5            300.33151      500.20288      2737.1947      160960.84      0.90804056     296.29851    
348000 298.079714554388 391.686522494523 2737.0137287599100091 160960.843986232 0.90804056235462204949 28.902616908393099493 192.68411272262099487 299.62025894677498172
    348000   0.5            298.07971      391.68652      2737.0137      160960.84      0.90804056     299.62026    
350000 319.4588 283.1891
352000 299.19651512321 416.615314165999 2736.8841499480899984 160960.843986232 0.90804056235462204949 28.902616908393099493 192.68411272262099487 304.02428590190902469
    352000   0.5            299.19652      416.61531      2736.8841      160960.84      0.90804056     304.02429    
356000 298.351969120597 318.116613572897 2736.6189673342400965 160960.843986232 0.90804056235462204949 28.902616908393099493 192.68411272262099487 307.07801641982598539
    356000   0.5            298.35197      318.11661      2736.619       160960.84      0.90804056     307.07802    
360000 320.5897 276.6266
360000 298.494814715884 521.914143825463 2736.9466138580601182 160960.843986232 0.90804056235462204949 28.902616908393099493 192.68411272262099487 310.45941071937198785
    360000   0.5            298.49481      521.91414      2736.9466      160960.84      0.90804056     310.45941    
364000 296.182837840602 782.961910772706 2737.0172853768799541 160960.843986232 0.90804056235462204949 28.902616908393099493 192.68411272262099487 313.05572928132102106
    364000   0.5            296.18284      782.96191      2737.0173      160960.84      0.90804056     313.05573    
368000 300.898595082477 449.841412741452 2736.9361139680199813 160960.843986232 0.90804056235462204949 28.902616908393099493 192.68411272262099487 316.52600016953800832
    368000   0.5            300.8986       449.84141      2736.9361      160960.84      0.90804056     316.526      
370000 327.8907 274.8584
372000 298.747183330267 379.957039692959 2736.8261554342998352 160960.843986232 0.90804056235462204949 28.902616908393099493 192.68411272262099487 320.00940889049098814
    372000   0.5            298.74718      379.95704      2736.8262      160960.84      0.90804056     320.00941    
376000 299.674295831741 -119.96691379304 2736.8575004645899753 160960.843986232 0.90804056235462204949 28.902616908393099493 192.68411272262099487 324.08211675296297472
    376000   0.5            299.6743      -119.96691      2736.8575      160960.84      0.90804056     324.08212    
380000 321.4016 260.1578
380000 300.656172837767 134.366219719687 2737.0159504684102103 160960.843986232 0.90804056235462204949 28.902616908393099493 192.68411272262099487 326.85549485169002537
    380000   0.5            300.65617      134.36622      2737.016       160960.84      0.90804056     326.85549    
384000 298.270481053781 -334.939756042366 2737.1982824305000577 160960.843986232 0.90804056235462204949 28.902616908393099493 192.68411272262099487 329.36015216230600799
    384000   0.5            298.27048     -334.93976      2737.1983      160960.84      0.90804056     329.36015    
388000 295.242991311059 55.8077060617852 2737.3607569709502059 160960.843986232 0.90804056235462204949 28.902616908393099493 192.68411272262099487 332.35904665483997178
    388000   0.5            295.24299      55.807706      2737.3608      160960.84      0.90804056     332.35905    
390000 321.0007 263.2060
392000 298.629380171246 436.27454647075 2737.1940976353098449 160960.843986232 0.90804056235462204949 28.902616908393099493 192.68411272262099487 335.59124176011300733
    392000   0.5            298.62938      436.27455      2737.1941      160960.84      0.90804056     335.59124    
396000 295.299442087179 317.577709459191 2737.2460852933299975 160960.843986232 0.90804056235462204949 28.902616908393099493 192.68411272262099487 337.97063201408502664
    396000   0.5            295.29944      317.57771      2737.2461      160960.84      0.90804056     337.97063    
400000 323.0136 267.5969
400000 297.972527039192 -327.150167655284 2736.9536900741099998 160960.843986232 0.90804056235462204949 28.902616908393099493 192.68411272262099487 340.73643504777601265
    400000   0.5            297.97253     -327.15017      2736.9537      160960.84      0.90804056     340.73644    
404000 295.918326680712 247.584806931994 2737.297629039650019 160960.843986232 0.90804056235462204949 28.902616908393099493 192.68411272262099487 344.20025099625797793
    404000   0.5            295.91833      247.58481      2737.2976      160960.84      0.90804056     344.20025    
408000 295.687351103622 -35.029550779086 2737.612541892829995 160960.843986232 0.90804056235462204949 28.902616908393099493 192.68411272262099487 348.00098069610498897
    408000   0.5            295.68735     -35.029551      2737.6125      160960.84      0.90804056     348.00098    
410000 339.8345 273.3109
412000 296.496201654936 166.771319299824 2737.1620976204499129 160960.843986232 0.90804056235462204949 28.902616908393099493 192.68411272262099487 350.89659023948297545
    412000   0.5            296.4962       166.77132      2737.1621      160960.84      0.90804056     350.89659    
416000 298.243403666424 -553.357719834229 2736.9662329216098442 160960.843986232 0.90804056235462204949 28.902616908393099493 192.68411272262099487 353.72064911890799976
    416000   0.5            298.2434      -553.35772      2736.9662      160960.84      0.90804056     353.72065    
420000 354.8255 287.9379
420000 296.953443004978 221.984921546175 2737.1809241885298434 160960.843986232 0.90804056235462204949 28.902616908393099493 192.68411272262099487 357.29951000993202115
    420000   0.5            296.95344      221.98492      2737.1809      160960.84      0.90804056     357.29951    
424000 296.522431943664 279.740449362731 2737.4289914242399391 160960.843986232 0.90804056235462204949 28.902616908393099493 192.68411272262099487 361.19792063520799275
    424000   0.5            296.52243      279.74045      2737.429       160960.84      0.90804056     361.19792    
428000 295.220717668228 525.324965582947 2737.4313864714099509 160960.843986232 0.90804056235462204949 28.902616908393099493 192.68411272262099487 364.63800543535199949
    428000   0.5            295.22072      525.32497      2737.4314      160960.84      0.90804056     364.63801    
430000 353.8282 275.7963
432000 295.560979774224 -441.456192865398 2737.6644884284100954 160960.843986232 0.90804056235462204949 28.902616908393099493 192.68411272262099487 371.22611498472997482
    432000   0.5            295.56098     -441.45619      2737.6645      160960.84      0.90804056     371.22611    
436000 296.542493521726 383.904735921226 2737.4898395454601996 160960.843986232 0.90804056235462204949 28.902616908393099493 192.68411272262099487 374.23077201247599533
    436000   0.5            296.54249      383.90474      2737.4898      160960.84      0.90804056     374.23077    
440000 336.3468 271.3196
440000 294.357943395311 333.511478063829 2737.5139660286599792 160960.843986232 0.90804056235462204949 28.902616908393099493 192.68411272262099487 377.67736018497402029
    440000   0.5            294.35794      333.51148      2737.514       160960.84      0.90804056     377.67736    
444000 296.455513366181 91.7103233045333 2737.2831190859501476 160960.843986232 0.90804056235462204949 28.902616908393099493 192.68411272262099487 380.70037739331098692
    444000   0.5            296.45551      91.710323      2737.2831      160960.84      0.90804056     380.70038    
448000 294.850289642042 784.574836674635 2737.3353739689900976 160960.843986232 0.90804056235462204949 28.902616908393099493 192.68411272262099487 384.1826344102900066
    448000   0.5            294.85029      784.57484      2737.3354      160960.84      0.90804056     384.18263    
450000 334.8312 274.5734
452000 295.546339722755 160.21252640797 2737.2569738338202114 160960.843986232 0.90804056235462204949 28.902616908393099493 192.68411272262099487 387.33416841911099482
    452000   0.5            295.54634      160.21253      2737.257       160960.84      0.90804056     387.33417    
456000 301.562297096522 817.82710631671 2737.1395563808600855 160960.843986232 0.90804056235462204949 28.902616908393099493 192.68411272262099487 389.93464427306099651
    456000   0.5            301.5623       817.82711      2737.1396      160960.84      0.90804056     389.93464    
460000 325.9465 268.5616
460000 300.627126646681 786.534021392548 2737.1400790445900384 160960.843986232 0.90804056235462204949 28.902616908393099493 192.68411272262099487 394.31224125693398719
    460000   0.5            300.62713      786.53402      2737.1401      160960.84      0.90804056     394.31224    
464000 301.588558530699 540.475043861638 2737.2531690611199338 160960.843986232 0.90804056235462204949 28.902616908393099493 192.68411272262099487 397.37690654273501423
    464000   0.5            301.58856      540.47504      2737.2532      160960.84      0.90804056     397.37691    
468000 296.75688977574 -286.368618943921 2737.3542183786398709 160960.843986232 0.90804056235462204949 28.902616908393099493 192.68411272262099487 400.1382253860530227
    468000   0.5            296.75689     -286.36862      2737.3542      160960.84      0.90804056     400.13823    
470000 333.6060 260.4657
472000 296.349563527137 394.404111280994 2737.4653079212098419 160960.843986232 0.90804056235462204949 28.902616908393099493 192.68411272262099487 403.72354499626999313
    472000   0.5            296.34956      394.40411      2737.4653      160960.84      0.90804056     403.72354    
476000 298.973250480291 -6.76440637203606 2737.6490259544898436 160960.843986232 0.90804056235462204949 28.902616908393099493 192.68411272262099487 407.16899332376402754
    476000   0.5            298.97325     -6.7644064      2737.649       160960.84      0.90804056     407.16899    
480000 313.3722 268.3091
480000 296.461472144076 15.4873384090489 2737.3381142047301182 160960.843986232 0.90804056235462204949 28.902616908393099493 192.68411272262099487 411.38911926087098436
    480000   0.5            296.46147      15.487338      2737.3381      160960.84      0.90804056     411.38912    
484000 296.082204377286 81.8509998038795 2737.4259356311099509 160960.843986232 0.90804056235462204949 28.902616908393099493 192.68411272262099487 415.73983202070797915
    484000   0.5            296.0822       81.851         2737.4259      160960.84      0.90804056     415.73983    
488000 299.045214042027 -158.191993909728 2737.4304109571298795 160960.843986232 0.90804056235462204949 28.902616908393099493 192.68411272262099487 420.13099133295997945
    488000   0.5            299.04521     -158.19199      2737.4304      160960.84      0.90804056     420.13099    
490000 333.9328 277.0028
492000 295.55524217641 -172.980493587415 2737.508173647609965 160960.843986232 0.90804056235462204949 28.902616908393099493 192.68411272262099487 424.27074041097301915
    492000   0.5            295.55524     -172.98049      2737.5082      160960.84      0.90804056     424.27074    
496000 296.837236149742 72.5221371669438 2737.4983202026801337 160960.843986232 0.90804056235462204949 28.902616908393099493 192.68411272262099487 427.15934814845797973
    496000   0.5            296.83724      72.522137      2737.4983      160960.84      0.90804056     427.15935    
500000 330.3918 277.1392
500000 299.590440380794 604.927389652991 2737.4080350993899629 160960.843986232 0.90804056235462204949 28.902616908393099493 192.68411272262099487 431.39885574313501593
    500000   0.5            299.59044      604.92739      2737.408       160960.84      0.90804056     431.39886    
504000 299.841689276879 516.101574659836 2737.2440657095298775 160960.843986232 0.90804056235462204949 28.902616908393099493 192.68411272262099487 434.32525950105201673
    504000   0.5            299.84169      516.10157      2737.2441      160960.84      0.90804056     434.32526    
508000 299.230831119265 482.44499506392 2737.1624380523298896 160960.843986232 0.90804056235462204949 28.902616908393099493 192.68411272262099487 437.30612395399998604
    508000   0.5            299.23083      482.445        2737.1624      160960.84      0.90804056     437.30612    
510000 335.8855 271.5902
512000 298.121270831672 384.992747047815 2737.2366844867001419 160960.843986232 0.90804056235462204949 28.902616908393099493 192.68411272262099487 440.35627024442800348
    512000   0.5            298.12127      384.99275      2737.2367      160960.84      0.90804056     440.35627    
516000 296.990579792988 -676.383051595222 2737.5342217729098593 160960.843986232 0.90804056235462204949 28.902616908393099493 192.68411272262099487 443.73021180260099072
    516000   0.5            296.99058     -676.38305      2737.5342      160960.84      0.90804056     443.73021    
520000 321.7668 256.9170
520000 297.607941329528 683.851533263446 2737.3501894981600344 160960.843986232 0.90804056235462204949 28.902616908393099493 192.68411272262099487 447.3628388845680206
    520000   0.5            297.60794      683.85153      2737.3502      160960.84      0.90804056     447.36284    
524000 297.216927267831 182.373984434278 2737.5800163765597972 160960.843986232 0.90804056235462204949 28.902616908393099493 192.68411272262099487 450.94371126021900409
    524000   0.5            297.21693      182.37398      2737.58        160960.84      0.90804056     450.94371    
528000 296.885052160403 228.001315100526 2737.4818794608900134 160960.843986232 0.90804056235462204949 28.902616908393099493 192.68411272262099487 456.53296731351400695
    528000   0.5            296.88505      228.00132      2737.4819      160960.84      0.90804056     456.53297    
530000 326.0505 262.1046
532000 297.413941464246 568.085884536686 2737.3080986238501282 160960.843986232 0.90804056235462204949 28.902616908393099493 192.68411272262099487 458.79921938353999167
    532000   0.5            297.41394      568.08588      2737.3081      160960.84      0.90804056     458.79922    
536000 297.093406120121 291.37909687584 2737.265342682319897 160960.843986232 0.90804056235462204949 28.902616908393099493 192.68411272262099487 461.59883586593599603
    536000   0.5            297.09341      291.3791       2737.2653      160960.84      0.90804056     461.59884    
540000 330.9855 267.2901
540000 298.216918470313 -224.933927977896 2737.31233417698013 160960.843986232 0.90804056235462204949 28.902616908393099493 192.68411272262099487 465.99058029906797174
    540000   0.5            298.21692     -224.93393      2737.3123      160960.84      0.90804056     465.99058    
544000 299.965134464435 468.693608390376 2737.2367896420300895 160960.843986232 0.90804056235462204949 28.902616908393099493 192.68411272262099487 469.51736174256501499
    544000   0.5            299.96513      468.69361      2737.2368      160960.84      0.90804056     469.51736    
548000 297.174629709199 276.994933187836 2737.3658382809599061 160960.843986232 0.90804056235462204949 28.902616908393099493 192.68411272262099487 471.71423283822400663
    548000   0.5            297.17463      276.99493      2737.3658      160960.84      0.90804056     471.71423    
550000 327.0803 274.9796
552000 297.122911522773 528.34698580283 2737.0790474181599166 160960.843986232 0.90804056235462204949 28.902616908393099493 192.68411272262099487 476.21327511562702739
    552000   0.5            297.12291      528.34699      2737.079       160960.84      0.90804056     476.21328    
556000 302.109841894783 -350.347824015203 2736.8963698670399936 160960.843986232 0.90804056235462204949 28.902616908393099493 192.68411272262099487 479.15994670723597437
    556000   0.5            302.10984     -350.34782      2736.8964      160960.84      0.90804056     479.15995    
560000 326.1592 276.0896
560000 297.757726294135 352.917595484067 2737.0933921484797793 160960.843986232 0.90804056235462204949 28.902616908393099493 192.68411272262099487 481.86042228744997828
    560000   0.5            297.75773      352.9176       2737.0934      160960.84      0.90804056     481.86042    
564000 297.072731816792 378.039745352293 2737.28204653442981 160960.843986232 0.90804056235462204949 28.902616908393099493 192.68411272262099487 484.23043247954501567
    564000   0.5            297.07273      378.03975      2737.282       160960.84      0.90804056     484.23043    
568000 295.609252619208 404.019933526573 2737.4385630752899488 160960.843986232 0.90804056235462204949 28.902616908393099493 192.68411272262099487 488.35008495001602569
    568000   0.5            295.60925      404.01993      2737.4386      160960.84      0.90804056     488.35008    
570000 336.9488 274.7430
572000 301.270650732943 -207.433637102534 2737.4972356193097767 160960.843986232 0.90804056235462204949 28.902616908393099493 192.68411272262099487 491.85485717913502413
    572000   0.5            301.27065     -207.43364      2737.4972      160960.84      0.90804056     491.85486    
576000 295.821980980641 693.787304177497 2737.42415416861013 160960.843986232 0.90804056235462204949 28.902616908393099493 192.68411272262099487 494.8569517297199809
    576000   0.5            295.82198      693.7873       2737.4242      160960.84      0.90804056     494.85695    
580000 333.2370 267.2151
580000 297.191591004527 -55.2917105611055 2737.2010392287397735 160960.843986232 0.90804056235462204949 28.902616908393099493 192.68411272262099487 498.72681176579999374
    580000   0.5            297.19159     -55.291711      2737.201       160960.84      0.90804056     498.72681    
584000 299.526133134587 921.160152063633 2737.2769823758599159 160960.843986232 0.90804056235462204949 28.902616908393099493 192.68411272262099487 500.98190634237300856
    584000   0.5            299.52613      921.16015      2737.277       160960.84      0.90804056     500.98191    
588000 300.760400069338 734.671193791661 2737.0908839724697827 160960.843986232 0.90804056235462204949 28.902616908393099493 192.68411272262099487 504.61669640197101216
    588000   0.5            300.7604       734.67119      2737.0909      160960.84      0.90804056     504.6167     
590000 332.9530 270.1969
592000 298.874833693858 -243.709767832604 2737.2260646612098753 160960.843986232 0.90804056235462204949 28.902616908393099493 192.68411272262099487 507.93838775389201601
    592000   0.5            298.87483     -243.70977      2737.2261      160960.84      0.90804056     507.93839    
596000 297.490167086368 219.257025814496 2737.2053954106199853 160960.843986232 0.90804056235462204949 28.902616908393099493 192.68411272262099487 511.74384909746697758
    596000   0.5            297.49017      219.25703      2737.2054      160960.84      0.90804056     511.74385    
600000 339.5856 266.7556
600000 298.313311553828 317.399240276768 2737.298192399349773 160960.843986232 0.90804056235462204949 28.902616908393099493 192.68411272262099487 515.14578066269496048
    600000   0.5            298.31331      317.39924      2737.2982      160960.84      0.90804056     515.14578    
604000 298.079590558743 135.091833697987 2737.4090612003001297 160960.843986232 0.90804056235462204949 28.902616908393099493 192.68411272262099487 517.706765291128022
    604000   0.5            298.07959      135.09183      2737.4091      160960.84      0.90804056     517.70677    
608000 298.253232254095 -6.06080095850248 2737.3003731932199116 160960.843986232 0.90804056235462204949 28.902616908393099493 192.68411272262099487 520.74569819302303131
    608000   0.5            298.25323     -6.060801       2737.3004      160960.84      0.90804056     520.7457     
610000 324.4866 268.7733
612000 293.811601062971 -84.6617219869727 2737.2602701855798841 160960.843986232 0.90804056235462204949 28.902616908393099493 192.68411272262099487 523.21380606072898445
    612000   0.5            293.8116      -84.661722      2737.2603      160960.84      0.90804056     523.21381    
616000 294.366929840198 546.772951475704 2736.9400889393200487 160960.843986232 0.90804056235462204949 28.902616908393099493 192.68411272262099487 526.57380700400597107
    616000   0.5            294.36693      546.77295      2736.9401      160960.84      0.90804056     526.57381    
620000 319.7637 265.6573
620000 298.305140777459 249.818681548791 2737.0719735348598078 160960.843986232 0.90804056235462204949 28.902616908393099493 192.68411272262099487 530.37944966034297067
    620000   0.5            298.30514      249.81868      2737.072       160960.84      0.90804056     530.37945    
624000 298.025935554816 317.728095979635 2737.0142139413101177 160960.843986232 0.90804056235462204949 28.902616908393099493 192.68411272262099487 533.56060473362595076
    624000   0.5            298.02594      317.7281       2737.0142      160960.84      0.90804056     533.5606     
628000 298.46714474348 -138.751805017731 2737.3033045382198907 160960.843986232 0.90804056235462204949 28.902616908393099493 192.68411272262099487 537.46930148445198938
    628000   0.5            298.46714     -138.75181      2737.3033      160960.84      0.90804056     537.4693     
630000 356.5827 273.6918
632000 297.675828981254 389.145136824051 2737.4035136330198839 160960.843986232 0.90804056235462204949 28.902616908393099493 192.68411272262099487 540.62998398468505457
    632000   0.5            297.67583      389.14514      2737.4035      160960.84      0.90804056     540.62998    
636000 297.40677984066 66.7234318771963 2737.4277723619397875 160960.843986232 0.90804056235462204949 28.902616908393099493 192.68411272262099487 543.21218480748098045
    636000   0.5            297.40678      66.723432      2737.4278      160960.84      0.90804056     543.21218    
640000 356.3709 261.2119
640000 300.565462364004 511.214254254306 2737.3086639982298038 160960.843986232 0.90804056235462204949 28.902616908393099493 192.68411272262099487 546.01001255115500044
    640000   0.5            300.56546      511.21425      2737.3087      160960.84      0.90804056     546.01001    
644000 297.771403864156 22.2125306385199 2737.2301311697201527 160960.843986232 0.90804056235462204949 28.902616908393099493 192.68411272262099487 550.19571134418004021
    644000   0.5            297.7714       22.212531      2737.2301      160960.84      0.90804056     550.19571    
648000 299.954743597188 603.969546931317 2737.0610317063701586 160960.843986232 0.90804056235462204949 28.902616908393099493 192.68411272262099487 553.52464358258805532
    648000   0.5            299.95474      603.96955      2737.061       160960.84      0.90804056     553.52464    
650000 321.6340 281.3833
652000 299.987664823132 6.88032211606427 2736.8298501793701689 160960.843986232 0.90804056235462204949 28.902616908393099493 192.68411272262099487 556.98549114387594727
    652000   0.5            299.98766      6.8803221      2736.8299      160960.84      0.90804056     556.98549    
656000 296.419837813134 -78.2210726302231 2737.3314047748799567 160960.843986232 0.90804056235462204949 28.902616908393099493 192.68411272262099487 561.02522831438398043
    656000   0.5            296.41984     -78.221073      2737.3314      160960.84      0.90804056     561.02523    
660000 319.5636 273.2074
660000 294.791937896491 508.16534553424 2737.3372117937901749 160960.843986232 0.90804056235462204949 28.902616908393099493 192.68411272262099487 563.70540584350294466
    660000   0.5            294.79194      508.16535      2737.3372      160960.84      0.90804056     563.70541    
664000 299.583687774083 442.41976218849 2737.3359216198400645 160960.843986232 0.90804056235462204949 28.902616908393099493 192.68411272262099487 567.16734803580004609
    664000   0.5            299.58369      442.41976      2737.3359      160960.84      0.90804056     567.16735    
668000 298.146327288865 37.0840877027667 2737.4340733556700798 160960.843986232 0.90804056235462204949 28.902616908393099493 192.68411272262099487 570.89950984660504218
    668000   0.5            298.14633      37.084088      2737.4341      160960.84      0.90804056     570.89951    
670000 339.5727 275.2717
672000 296.63544883523 123.974299141519 2737.5612147344800178 160960.843986232 0.90804056235462204949 28.902616908393099493 192.68411272262099487 574.53701925254301841
    672000   0.5            296.63545      123.9743       2737.5612      160960.84      0.90804056     574.53702    
676000 300.637795442821 597.961882764156 2737.6542298920398935 160960.843986232 0.90804056235462204949 28.902616908393099493 192.68411272262099487 576.99076876616004483
    676000   0.5            300.6378       597.96188      2737.6542      160960.84      0.90804056     576.99077    
680000 354.7455 268.0997
680000 295.827791437076 605.934937855797 2737.3606442004697783 160960.843986232 0.90804056235462204949 28.902616908393099493 192.68411272262099487 579.96858555910296218
    680000   0.5            295.82779      605.93494      2737.3606      160960.84      0.90804056     579.96859    
684000 299.087431454635 412.817312902496 2737.1435979337998106 160960.843986232 0.90804056235462204949 28.902616908393099493 192.68411272262099487 583.66266255306095445
    684000   0.5            299.08743      412.81731      2737.1436      160960.84      0.90804056     583.66266    
688000 302.005079309356 100.901860517899 2737.1014139897602035 160960.843986232 0.90804056235462204949 28.902616908393099493 192.68411272262099487 586.84772495178401641
    688000   0.5            302.00508      100.90186      2737.1014      160960.84      0.90804056     586.84772    
690000 338.9725 273.0827
692000 297.304677368158 511.774559031572 2737.2895306236200668 160960.843986232 0.90804056235462204949 28.902616908393099493 192.68411272262099487 589.71694165285896361
    692000   0.5            297.30468      511.77456      2737.2895      160960.84      0.90804056     589.71694    
696000 297.515565263332 235.496167039961 2737.2673301312202057 160960.843986232 0.90804056235462204949 28.902616908393099493 192.68411272262099487 593.33862987848397097
    696000   0.5            297.51557      235.49617      2737.2673      160960.84      0.90804056     593.33863    
700000 345.8811 271.7267
700000 297.584036472907 528.321306487112 2737.3562609493801574 160960.843986232 0.90804056235462204949 28.902616908393099493 192.68411272262099487 596.02159361308497409
    700000   0.5            297.58404      528.32131      2737.3563      160960.84      0.90804056     596.02159    
704000 294.183693330948 -356.75304680595 2737.6590972725998654 160960.843986232 0.90804056235462204949 28.902616908393099493 192.68411272262099487 598.96360752137695727
    704000   0.5            294.18369     -356.75305      2737.6591      160960.84      0.90804056     598.96361    
708000 297.792031173336 -336.642262199275 2737.3517510160399979 160960.843986232 0.90804056235462204949 28.902616908393099493 192.68411272262099487 602.10134442598200621
    708000   0.5            297.79203     -336.64226      2737.3518      160960.84      0.90804056     602.10134    
710000 324.6493 283.7664
712000 296.713149928984 156.057014545311 2737.6234356995701091 160960.843986232 0.90804056235462204949 28.902616908393099493 192.68411272262099487 606.46556719144803083
    712000   0.5            296.71315      156.05701      2737.6234      160960.84      0.90804056     606.46557    
716000 298.842180174342 606.417404406219 2737.8853967250502137 160960.843986232 0.90804056235462204949 28.902616908393099493 192.68411272262099487 609.85875822191701445
    716000   0.5            298.84218      606.4174       2737.8854      160960.84      0.90804056     609.85876    
720000 319.4701 263.5361
720000 294.31651012632 974.647283822945 2737.8608086382901092 160960.843986232 0.90804056235462204949 28.902616908393099493 192.68411272262099487 612.79755104402795496
    720000   0.5            294.31651      974.64728      2737.8608      160960.84      0.90804056     612.79755    
724000 294.104953217984 544.261983369955 2737.774884319299872 160960.843986232 0.90804056235462204949 28.902616908393099493 192.68411272262099487 616.00950420437902721
    724000   0.5            294.10495      544.26198      2737.7749      160960.84      0.90804056     616.0095     
728000 296.781583065349 434.847553711938 2737.8459458408401588 160960.843986232 0.90804056235462204949 28.902616908393099493 192.68411272262099487 619.33233308429100816
    728000   0.5            296.78158      434.84755      2737.8459      160960.84      0.90804056     619.33233    
730000 314.2721 258.8603
732000 295.856186646601 334.180733970597 2737.8689539298698037 160960.843986232 0.90804056235462204949 28.902616908393099493 192.68411272262099487 622.14515008034800303
    732000   0.5            295.85619      334.18073      2737.869       160960.84      0.90804056     622.14515    
736000 298.432295815573 -32.1009083717403 2737.4670320243799324 160960.843986232 0.90804056235462204949 28.902616908393099493 192.68411272262099487 625.47302228593696327
    736000   0.5            298.4323      -32.100908      2737.467       160960.84      0.90804056     625.47302    
740000 329.3482 253.3542
740000 297.910121499046 916.750351370471 2737.5801582661501925 160960.843986232 0.90804056235462204949 28.902616908393099493 192.68411272262099487 628.50490536446898204
    740000   0.5            297.91012      916.75035      2737.5802      160960.84      0.90804056     628.50491    
744000 297.126210727729 345.084898459699 2737.5437380612402194 160960.843986232 0.90804056235462204949 28.902616908393099493 192.68411272262099487 632.39359478169797057
    744000   0.5            297.12621      345.0849       2737.5437      160960.84      0.90804056     632.39359    
748000 296.277585405664 209.669505816121 2737.8302381873099876 160960.843986232 0.90804056235462204949 28.902616908393099493 192.68411272262099487 636.54184830172698639
    748000   0.5            296.27759      209.66951      2737.8302      160960.84      0.90804056     636.54185    
750000 333.3412 262.1991
752000 296.047359685574 -61.7143685884736 2737.7896667998102203 160960.843986232 0.90804056235462204949 28.902616908393099493 192.68411272262099487 638.74490346331299406
    752000   0.5            296.04736     -61.714369      2737.7897      160960.84      0.90804056     638.7449     
756000 293.851866060252 145.26467554775 2737.7509156725500361 160960.843986232 0.90804056235462204949 28.902616908393099493 192.68411272262099487 643.42147349148797275
    756000   0.5            293.85187      145.26468      2737.7509      160960.84      0.90804056     643.42147    
760000 338.1504 253.9122
760000 298.622773548757 838.52939035194 2737.5415362977801124 160960.843986232 0.90804056235462204949 28.902616908393099493 192.68411272262099487 646.64734765833100028
    760000   0.5            298.62277      838.52939      2737.5415      160960.84      0.90804056     646.64735    
764000 294.766093627225 333.059996395227 2737.4867907973198271 160960.843986232 0.90804056235462204949 28.902616908393099493 192.68411272262099487 649.43423688437997043
    764000   0.5            294.76609      333.06         2737.4868      160960.84      0.90804056     649.43424    
768000 294.807737737089 126.073328426965 2737.4485367975298686 160960.843986232 0.90804056235462204949 28.902616908393099493 192.68411272262099487 652.39335119544296049
    768000   0.5            294.80774      126.07333      2737.4485      160960.84      0.90804056     652.39335    
770000 340.3857 262.3227
772000 298.456038496668 137.529909102079 2737.4755011030201786 160960.843986232 0.90804056235462204949 28.902616908393099493 192.68411272262099487 655.74663607354102624
    772000   0.5            298.45604      137.52991      2737.4755      160960.84      0.90804056     655.74664    
776000 297.076962096275 -287.09460532504 2737.607125336250192 160960.843986232 0.90804056235462204949 28.902616908393099493 192.68411272262099487 658.59175434373798907
    776000   0.5            297.07696     -287.09461      2737.6071      160960.84      0.90804056     658.59175    
780000 328.9935 258.0093
780000 291.653131248825 -52.3749217680761 2737.8935174143398399 160960.843986232 0.90804056235462204949 28.902616908393099493 192.68411272262099487 661.34805400566199296
    780000   0.5            291.65313     -52.374922      2737.8935      160960.84      0.90804056     661.34805    
784000 297.482613437168 -522.139409419953 2737.8094120659598047 160960.843986232 0.90804056235462204949 28.902616908393099493 192.68411272262099487 664.52527659072302413
    784000   0.5            297.48261     -522.13941      2737.8094      160960.84      0.90804056     664.52528    
788000 296.581202879548 417.431499407191 2737.5143637085798218 160960.843986232 0.90804056235462204949 28.902616908393099493 192.68411272262099487 667.52437503868202384
    788000   0.5            296.5812       417.4315       2737.5144      160960.84      0.90804056     667.52438    
790000 309.1893 271.5510
792000 296.519302341061 555.647975561648 2737.7581317578401467 160960.843986232 0.90804056235462204949 28.902616908393099493 192.68411272262099487 670.39376330481695732
    792000   0.5            296.5193       555.64798      2737.7581      160960.84      0.90804056     670.39376    
796000 297.355624612081 61.613537310314 2737.5668860232799489 160960.843986232 0.90804056235462204949 28.902616908393099493 192.68411272262099487 674.02821283928199136
    796000   0.5            297.35562      61.613537      2737.5669      160960.84      0.90804056     674.02821    
800000 310.8382 268.4810
800000 299.471137329415 545.552881483758 2737.2796111640400341 160960.843986232 0.90804056235462204949 28.902616908393099493 192.68411272262099487 678.07208803703395006
    800000   0.5            299.47114      545.55288      2737.2796      160960.84      0.90804056     678.07209    
804000 296.30539356846 -407.647785717126 2737.3349952842900166 160960.843986232 0.90804056235462204949 28.902616908393099493 192.68411272262099487 680.17167326357696311
    804000   0.5            296.30539     -407.64779      2737.335       160960.84      0.90804056     680.17167    
808000 300.850401010583 55.3876207454761 2737.1596086334698157 160960.843986232 0.90804056235462204949 28.902616908393099493 192.68411272262099487 683.39093826309999713
    808000   0.5            300.8504       55.387621      2737.1596      160960.84      0.90804056     683.39094    
810000 325.4582 269.8379
812000 294.341206858693 158.835144017854 2737.06491896335001 160960.843986232 0.90804056235462204949 28.902616908393099493 192.68411272262099487 687.06219355157395512
    812000   0.5            294.34121      158.83514      2737.0649      160960.84      0.90804056     687.06219    
816000 294.647099646904 662.846501969686 2737.1622711879499548 160960.843986232 0.90804056235462204949 28.902616908393099493 192.68411272262099487 689.69053773643497607
    816000   0.5            294.6471       662.8465       2737.1623      160960.84      0.90804056     689.69054    
820000 312.6181 274.1099
820000 295.12839169637 401.811737842995 2737.3354047388697836 160960.843986232 0.90804056235462204949 28.902616908393099493 192.68411272262099487 693.21349790150497938
    820000   0.5            295.12839      401.81174      2737.3354      160960.84      0.90804056     693.2135     
824000 297.94010334809 275.73871498304 2737.493395092839819 160960.843986232 0.90804056235462204949 28.902616908393099493 192.68411272262099487 696.19476582074901216
    824000   0.5            297.9401       275.73871      2737.4934      160960.84      0.90804056     696.19477    
828000 299.960223928093 322.086776048185 2737.1902020375500797 160960.843986232 0.90804056235462204949 28.902616908393099493 192.68411272262099487 698.5534693212299544
    828000   0.5            299.96022      322.08678      2737.1902      160960.84      0.90804056     698.55347    
830000 310.2096 262.8954
832000 298.802712891166 1149.66876804124 2737.370113110100192 160960.843986232 0.90804056235462204949 28.902616908393099493 192.68411272262099487 701.36090735317804956
    832000   0.5            298.80271      1149.6688      2737.3701      160960.84      0.90804056     701.36091    
836000 295.225232088891 464.54355180884 2737.6308741670100062 160960.843986232 0.90804056235462204949 28.902616908393099493 192.68411272262099487 704.76763348214501548
    836000   0.5            295.22523      464.54355      2737.6309      160960.84      0.90804056     704.76763    
840000 322.9111 272.2560
840000 297.958181092614 126.713026472034 2737.6063780162498915 160960.843986232 0.90804056235462204949 28.902616908393099493 192.68411272262099487 707.50027970099802133
    840000   0.5            297.95818      126.71303      2737.6064      160960.84      0.90804056     707.50028    
844000 297.889974622739 135.472088583183 2737.4130849196199051 160960.843986232 0.90804056235462204949 28.902616908393099493 192.68411272262099487 710.00755235711096702
    844000   0.5            297.88997      135.47209      2737.4131      160960.84      0.90804056     710.00755    
848000 298.333810062578 483.591940654215 2737.521397442540092 160960.843986232 0.90804056235462204949 28.902616908393099493 192.68411272262099487 713.2040495313659676
    848000   0.5            298.33381      483.59194      2737.5214      160960.84      0.90804056     713.20405    
850000 310.3459 268.0997
852000 295.45815338171 271.440646793822 2737.6191184168601467 160960.843986232 0.90804056235462204949 28.902616908393099493 192.68411272262099487 716.19525878910303618
    852000   0.5            295.45815      271.44065      2737.6191      160960.84      0.90804056     716.19526    
856000 297.347627001849 369.301011483136 2737.8377288547999342 160960.843986232 0.90804056235462204949 28.902616908393099493 192.68411272262099487 721.25960347376496884
    856000   0.5            297.34763      369.30101      2737.8377      160960.84      0.90804056     721.2596     
860000 324.9916 272.4287
860000 291.527225382542 152.393281348994 2737.9837331783501213 160960.843986232 0.90804056235462204949 28.902616908393099493 192.68411272262099487 723.83095337239797118
    860000   0.5            291.52723      152.39328      2737.9837      160960.84      0.90804056     723.83095    
864000 294.542386079124 239.217227020054 2738.0157779489900349 160960.843986232 0.90804056235462204949 28.902616908393099493 192.68411272262099487 726.92386652171194328
    864000   0.5            294.54239      239.21723      2738.0158      160960.84      0.90804056     726.92387    
868000 298.008651762391 460.282215632839 2737.7844231336798657 160960.843986232 0.90804056235462204949 28.902616908393099493 192.68411272262099487 730.30242397650295061
    868000   0.5            298.00865      460.28222      2737.7844      160960.84      0.90804056     730.30242    
870000 346.0679 259.9773
872000 298.306116683738 277.550176094275 2737.846885465250125 160960.843986232 0.90804056235462204949 28.902616908393099493 192.68411272262099487 733.19782533800298552
    872000   0.5            298.30612      277.55018      2737.8469      160960.84      0.90804056     733.19783    
876000 300.276827334418 496.685340928863 2737.4210265883998545 160960.843986232 0.90804056235462204949 28.902616908393099493 192.68411272262099487 735.84213365258199246
    876000   0.5            300.27683      496.68534      2737.421       160960.84      0.90804056     735.84213    
880000 333.1643 255.6003
880000 299.022194378659 518.892028070191 2737.2518213311300315 160960.843986232 0.90804056235462204949 28.902616908393099493 192.68411272262099487 739.26359553459201379
    880000   0.5            299.02219      518.89203      2737.2518      160960.84      0.90804056     739.2636     
884000 297.896299019829 -67.9279863366304 2737.3485716647801382 160960.843986232 0.90804056235462204949 28.902616908393099493 192.68411272262099487 742.64738025474400729
    884000   0.5            297.8963      -67.927986      2737.3486      160960.84      0.90804056     742.64738    
888000 298.394448323012 208.811912272505 2737.5946628105898526 160960.843986232 0.90804056235462204949 28.902616908393099493 192.68411272262099487 745.31260379056902821
    888000   0.5            298.39445      208.81191      2737.5947      160960.84      0.90804056     745.3126     
890000 334.7608 268.4315
892000 298.797295235825 104.979843565507 2737.6963313389401264 160960.843986232 0.90804056235462204949 28.902616908393099493 192.68411272262099487 748.12206193333997817
    892000   0.5            298.7973       104.97984      2737.6963      160960.84      0.90804056     748.12206    
896000 299.311860423958 412.125847036292 2737.4334345571901395 160960.843986232 0.90804056235462204949 28.902616908393099493 192.68411272262099487 753.32517970137098473
    896000   0.5            299.31186      412.12585      2737.4334      160960.84      0.90804056     753.32518    
900000 339.3207 263.0512
900000 302.199578522886 77.9900678447925 2737.6850264088398035 160960.843986232 0.90804056235462204949 28.902616908393099493 192.68411272262099487 756.29727228653098337
    900000   0.5            302.19958      77.990068      2737.685       160960.84      0.90804056     756.29727    
904000 299.224780373219 352.176011513104 2737.8965389210297872 160960.843986232 0.90804056235462204949 28.902616908393099493 192.68411272262099487 760.22798963590605581
    904000   0.5            299.22478      352.17601      2737.8965      160960.84      0.90804056     760.22799    
908000 294.511629298635 352.869663530243 2737.9625481347397908 160960.843986232 0.90804056235462204949 28.902616908393099493 192.68411272262099487 764.50284911037203983
    908000   0.5            294.51163      352.86966      2737.9625      160960.84      0.90804056     764.50285    
910000 330.6086 256.4478
912000 297.58185669257 292.254693624602 2738.0191103708798437 160960.843986232 0.90804056235462204949 28.902616908393099493 192.68411272262099487 766.76434989994595526
    912000   0.5            297.58186      292.25469      2738.0191      160960.84      0.90804056     766.76435    
916000 299.266754126338 293.871938879333 2737.8650623194498621 160960.843986232 0.90804056235462204949 28.902616908393099493 192.68411272262099487 770.33416585640304675
    916000   0.5            299.26675      293.87194      2737.8651      160960.84      0.90804056     770.33417    
920000 333.6630 256.5302
920000 297.639433471259 -403.180193451609 2737.6962898622200555 160960.843986232 0.90804056235462204949 28.902616908393099493 192.68411272262099487 774.7448583986539461
    920000   0.5            297.63943     -403.18019      2737.6963      160960.84      0.90804056     774.74486    
924000 295.371102483649 10.9491377288765 2737.6757959666301758 160960.843986232 0.90804056235462204949 28.902616908393099493 192.68411272262099487 777.77358443118703235
    924000   0.5            295.3711       10.949138      2737.6758      160960.84      0.90804056     777.77358    
928000 298.235967869563 718.422328835632 2737.5786615583101593 160960.843986232 0.90804056235462204949 28.902616908393099493 192.68411272262099487 781.79730351147600231
    928000   0.5            298.23597      718.42233      2737.5787      160960.84      0.90804056     781.7973     
930000 327.9198 259.4546
932000 299.007203860415 113.307352662581 2737.5906686552698375 160960.843986232 0.90804056235462204949 28.902616908393099493 192.68411272262099487 784.74068107373398107
    932000   0.5            299.0072       113.30735      2737.5907      160960.84      0.90804056     784.74068    
936000 300.441312942664 176.467178447561 2737.3923851952499717 160960.843986232 0.90804056235462204949 28.902616908393099493 192.68411272262099487 787.91705321214794822
    936000   0.5            300.44131      176.46718      2737.3924      160960.84      0.90804056     787.91705    
940000 320.0990 274.8369
940000 299.451153021674 534.302493136101 2737.1871969740600434 160960.843986232 0.90804056235462204949 28.902616908393099493 192.68411272262099487 792.25788241555096647
    940000   0.5            299.45115      534.30249      2737.1872      160960.84      0.90804056     792.25788    
944000 297.859572162455 201.202515189993 2737.1212682450700413 160960.843986232 0.90804056235462204949 28.902616908393099493 192.68411272262099487 795.49599154583995642
    944000   0.5            297.85957      201.20252      2737.1213      160960.84      0.90804056     795.49599    
948000 298.244551794521 739.518334144674 2736.9521607509000205 160960.843986232 0.90804056235462204949 28.902616908393099493 192.68411272262099487 798.66954174262900779
    948000   0.5            298.24455      739.51833      2736.9522      160960.84      0.90804056     798.66954    
950000 320.9305 279.1280
952000 299.683260110222 356.964932976801 2737.5320841384500454 160960.843986232 0.90804056235462204949 28.902616908393099493 192.68411272262099487 801.00211760441800379
    952000   0.5            299.68326      356.96493      2737.5321      160960.84      0.90804056     801.00212    
956000 298.172052686909 798.317860798712 2737.7180775194301532 160960.843986232 0.90804056235462204949 28.902616908393099493 192.68411272262099487 803.9376596647880433
    956000   0.5            298.17205      798.31786      2737.7181      160960.84      0.90804056     803.93766    
960000 337.4400 279.1567
960000 297.89701011714 410.85556248542 2738.0591347236600086 160960.843986232 0.90804056235462204949 28.902616908393099493 192.68411272262099487 806.18468865230704523
    960000   0.5            297.89701      410.85556      2738.0591      160960.84      0.90804056     806.18469    
964000 297.700950807835 68.2377816756522 2738.0368533503001345 160960.843986232 0.90804056235462204949 28.902616908393099493 192.68411272262099487 809.12750540424497103
    964000   0.5            297.70095      68.237782      2738.0369      160960.84      0.90804056     809.12751    
968000 295.203270113355 79.3253023886582 2738.2015065855998728 160960.843986232 0.90804056235462204949 28.902616908393099493 192.68411272262099487 811.51035802629701266
    968000   0.5            295.20327      79.325302      2738.2015      160960.84      0.90804056     811.51036    
970000 318.6661 272.0767
972000 298.057937469304 4.65515342360286 2738.1353399325998907 160960.843986232 0.90804056235462204949 28.902616908393099493 192.68411272262099487 815.49356636930701825
    972000   0.5            298.05794      4.6551534      2738.1353      160960.84      0.90804056     815.49357    
976000 295.842067472563 28.6757625024016 2738.0707779662197936 160960.843986232 0.90804056235462204949 28.902616908393099493 192.68411272262099487 819.57252117922905654
    976000   0.5            295.84207      28.675763      2738.0708      160960.84      0.90804056     819.57252    
980000 342.1739 272.5036
980000 296.676281261598 177.379487175993 2737.9786344974399981 160960.843986232 0.90804056235462204949 28.902616908393099493 192.68411272262099487 821.78468970262701987
    980000   0.5            296.67628      177.37949      2737.9786      160960.84      0.90804056     821.78469    
984000 298.259011085941 773.21900776255 2737.6501735956298944 160960.843986232 0.90804056235462204949 28.902616908393099493 192.68411272262099487 825.5962461533580381
    984000   0.5            298.25901      773.21901      2737.6502      160960.84      0.90804056     825.59625    
988000 299.276015308749 -205.371208312619 2737.5750651510297757 160960.843986232 0.90804056235462204949 28.902616908393099493 192.68411272262099487 829.48837738950601306
    988000   0.5            299.27602     -205.37121      2737.5751      160960.84      0.90804056     829.48838    
990000 336.2351 278.9314
992000 294.920694140068 -446.961461940931 2737.6233902829999352 160960.843986232 0.90804056235462204949 28.902616908393099493 192.68411272262099487 832.80232877492096577
    992000   0.5            294.92069     -446.96146      2737.6234      160960.84      0.90804056     832.80233    
996000 300.727102166955 -214.822251274736 2737.3473833212001409 160960.843986232 0.90804056235462204949 28.902616908393099493 192.68411272262099487 836.05386675934505547
    996000   0.5            300.7271      -214.82225      2737.3474      160960.84      0.90804056     836.05387    
1000000 320.3716 284.2298
1000000 297.370898650105 4.41657124333056 2737.333501482599786 160960.843986232 0.90804056235462204949 28.902616908393099493 192.68411272262099487 839.26897128323696506
   1000000   0.5            297.3709       4.4165712      2737.3335      160960.84      0.90804056     839.26897    
1004000 298.656670006847 692.024355263486 2737.2467830747500557 160960.843986232 0.90804056235462204949 28.902616908393099493 192.68411272262099487 845.24772481751097075
   1004000   0.5            298.65667      692.02436      2737.2468      160960.84      0.90804056     845.24772    
1008000 299.006618458336 363.545566468522 2737.471004412289858 160960.843986232 0.90804056235462204949 28.902616908393099493 192.68411272262099487 848.22783851257804599
   1008000   0.5            299.00662      363.54557      2737.471       160960.84      0.90804056     848.22784    
1010000 338.6290 280.1088
1012000 298.917511438205 636.443416381296 2737.5052093598801548 160960.843986232 0.90804056235462204949 28.902616908393099493 192.68411272262099487 850.91729208280105468
   1012000   0.5            298.91751      636.44342      2737.5052      160960.84      0.90804056     850.91729    
1016000 296.575106847337 -8.89520590138216 2737.8076634935500806 160960.843986232 0.90804056235462204949 28.902616908393099493 192.68411272262099487 853.94032768899398889
   1016000   0.5            296.57511     -8.8952059      2737.8077      160960.84      0.90804056     853.94033    
1020000 338.7993 281.7701
1020000 301.652777816228 846.414093105651 2737.2767700882500321 160960.843986232 0.90804056235462204949 28.902616908393099493 192.68411272262099487 857.65372182314695237
   1020000   0.5            301.65278      846.41409      2737.2768      160960.84      0.90804056     857.65372    
1024000 297.065490888757 554.200274660958 2737.4970217611898988 160960.843986232 0.90804056235462204949 28.902616908393099493 192.68411272262099487 861.04153739047501404
   1024000   0.5            297.06549      554.20027      2737.497       160960.84      0.90804056     861.04154    
1028000 295.538030460734 -4.60947015872346 2737.6103795741300928 160960.843986232 0.90804056235462204949 28.902616908393099493 192.68411272262099487 864.26753313934500511
   1028000   0.5            295.53803     -4.6094702      2737.6104      160960.84      0.90804056     864.26753    
1030000 321.6696 278.2321
1032000 297.101846784562 -612.585699572938 2737.7468971483099267 160960.843986232 0.90804056235462204949 28.902616908393099493 192.68411272262099487 867.18610977632999948
   1032000   0.5            297.10185     -612.5857       2737.7469      160960.84      0.90804056     867.18611    
1036000 298.370630417073 -201.897337660907 2737.5256730711698765 160960.843986232 0.90804056235462204949 28.902616908393099493 192.68411272262099487 870.08196099689905623
   1036000   0.5            298.37063     -201.89734      2737.5257      160960.84      0.90804056     870.08196    
1040000 323.8753 281.9272
1040000 298.613896950384 938.571769279942 2737.1771275996898112 160960.843986232 0.90804056235462204949 28.902616908393099493 192.68411272262099487 872.64205719051301458
   1040000   0.5            298.6139       938.57177      2737.1771      160960.84      0.90804056     872.64206    
1044000 299.98698955041 428.136632238505 2737.2024999523900988 160960.843986232 0.90804056235462204949 28.902616908393099493 192.68411272262099487 875.19145119999598137
   1044000   0.5            299.98699      428.13663      2737.2025      160960.84      0.90804056     875.19145    
1048000 298.456830066975 159.715569210101 2737.3623979079197852 160960.843986232 0.90804056235462204949 28.902616908393099493 192.68411272262099487 879.07130792945702069
   1048000   0.5            298.45683      159.71557      2737.3624      160960.84      0.90804056     879.07131    
1050000 316.5633 275.8294
[...]
  19752000   0.5            298.67032     -811.74696      2748.118       160960.84      0.90804056     15945.125    
19756000 298.399287265191 547.294947760849 2748.1518419492399516 160960.843986232 0.90804056235462204949 28.902616908393099493 192.68411272262099487 15949.425998482400246
  19756000   0.5            298.39929      547.29495      2748.1518      160960.84      0.90804056     15949.426    
19760000 346.3797 238.8200
19760000 295.695989515964 301.702129690399 2748.2535243554198132 160960.843986232 0.90804056235462204949 28.902616908393099493 192.68411272262099487 15951.974448653199943
  19760000   0.5            295.69599      301.70213      2748.2535      160960.84      0.90804056     15951.974    
19764000 295.32862333946 415.598636804315 2748.3426392054198004 160960.843986232 0.90804056235462204949 28.902616908393099493 192.68411272262099487 15955.451653290700051
  19764000   0.5            295.32862      415.59864      2748.3426      160960.84      0.90804056     15955.452    
19768000 297.018758045021 376.633129475162 2748.5186228547399878 160960.843986232 0.90804056235462204949 28.902616908393099493 192.68411272262099487 15958.717259553899567
  19768000   0.5            297.01876      376.63313      2748.5186      160960.84      0.90804056     15958.717    
19770000 321.4590 245.1929
19772000 296.324998337217 -237.595069938508 2748.3729998035200879 160960.843986232 0.90804056235462204949 28.902616908393099493 192.68411272262099487 15962.212845638399813
  19772000   0.5            296.325       -237.59507      2748.373       160960.84      0.90804056     15962.213    
19776000 295.277727920857 221.00305744159 2748.7764001157897837 160960.843986232 0.90804056235462204949 28.902616908393099493 192.68411272262099487 15964.422424085700186
  19776000   0.5            295.27773      221.00306      2748.7764      160960.84      0.90804056     15964.422    
19780000 335.6014 249.1893
19780000 296.58875086224 -482.538240865526 2748.7048477427501894 160960.843986232 0.90804056235462204949 28.902616908393099493 192.68411272262099487 15968.054382124799304
  19780000   0.5            296.58875     -482.53824      2748.7048      160960.84      0.90804056     15968.054    
19784000 297.906110602118 -138.616888222906 2748.4281342574399787 160960.843986232 0.90804056235462204949 28.902616908393099493 192.68411272262099487 15970.648233041700223
  19784000   0.5            297.90611     -138.61689      2748.4281      160960.84      0.90804056     15970.648    
19788000 297.309153082479 -232.295736833595 2748.2431335023197789 160960.843986232 0.90804056235462204949 28.902616908393099493 192.68411272262099487 15974.360080848900907
  19788000   0.5            297.30915     -232.29574      2748.2431      160960.84      0.90804056     15974.36     
19790000 329.8930 257.3303
19792000 296.157887431962 360.747738237223 2748.3622386944298341 160960.843986232 0.90804056235462204949 28.902616908393099493 192.68411272262099487 15977.11566967950057
  19792000   0.5            296.15789      360.74774      2748.3622      160960.84      0.90804056     15977.116    
19796000 294.780345157111 136.942990397339 2748.4270079831098883 160960.843986232 0.90804056235462204949 28.902616908393099493 192.68411272262099487 15981.358585067300737
  19796000   0.5            294.78035      136.94299      2748.427       160960.84      0.90804056     15981.359    
19800000 323.8855 249.8438
19800000 298.043160347722 59.7157395102008 2748.2639854361800644 160960.843986232 0.90804056235462204949 28.902616908393099493 192.68411272262099487 15983.986727954399612
  19800000   0.5            298.04316      59.71574       2748.264       160960.84      0.90804056     15983.987    
19804000 294.384620987007 243.775814079529 2748.3817072196998197 160960.843986232 0.90804056235462204949 28.902616908393099493 192.68411272262099487 15986.61186064210051
  19804000   0.5            294.38462      243.77581      2748.3817      160960.84      0.90804056     15986.612    
19808000 294.138236581381 98.2082101519552 2748.047455755160172 160960.843986232 0.90804056235462204949 28.902616908393099493 192.68411272262099487 15989.76067894389962
  19808000   0.5            294.13824      98.20821       2748.0475      160960.84      0.90804056     15989.761    
19810000 321.3641 252.5925
19812000 298.045996348976 -231.373947730981 2748.0358392272200945 160960.843986232 0.90804056235462204949 28.902616908393099493 192.68411272262099487 15992.189367689299615
  19812000   0.5            298.046       -231.37395      2748.0358      160960.84      0.90804056     15992.189    
19816000 293.678748273365 567.650168704117 2748.1204374037001799 160960.843986232 0.90804056235462204949 28.902616908393099493 192.68411272262099487 15994.60693407690087
  19816000   0.5            293.67875      567.65017      2748.1204      160960.84      0.90804056     15994.607    
19820000 305.9294 251.9567
19820000 296.406070580319 298.040314494786 2747.8705991222100238 160960.843986232 0.90804056235462204949 28.902616908393099493 192.68411272262099487 15998.399226070700024
  19820000   0.5            296.40607      298.04031      2747.8706      160960.84      0.90804056     15998.399    
19824000 299.580928926194 -305.485764388486 2747.949854394400063 160960.843986232 0.90804056235462204949 28.902616908393099493 192.68411272262099487 16001.018552241299403
  19824000   0.5            299.58093     -305.48576      2747.9499      160960.84      0.90804056     16001.019    
19828000 296.699918445037 256.494981550109 2747.8903787580297831 160960.843986232 0.90804056235462204949 28.902616908393099493 192.68411272262099487 16004.378109994200713
  19828000   0.5            296.69992      256.49498      2747.8904      160960.84      0.90804056     16004.378    
19830000 328.3708 254.1750
19832000 298.806468731607 253.793845409979 2747.9299415641098676 160960.843986232 0.90804056235462204949 28.902616908393099493 192.68411272262099487 16006.93239686060042
  19832000   0.5            298.80647      253.79385      2747.9299      160960.84      0.90804056     16006.932    
19836000 294.247643493557 -444.138496424539 2748.3205627202000869 160960.843986232 0.90804056235462204949 28.902616908393099493 192.68411272262099487 16010.412139664200367
  19836000   0.5            294.24764     -444.1385       2748.3206      160960.84      0.90804056     16010.412    
19840000 314.9626 259.1323
19840000 293.209203243509 -252.023611680147 2748.4593218507197889 160960.843986232 0.90804056235462204949 28.902616908393099493 192.68411272262099487 16013.248124799900324
  19840000   0.5            293.2092      -252.02361      2748.4593      160960.84      0.90804056     16013.248    
19844000 296.082990491431 198.541005605712 2748.0697827392400541 160960.843986232 0.90804056235462204949 28.902616908393099493 192.68411272262099487 16015.797873717399852
  19844000   0.5            296.08299      198.54101      2748.0698      160960.84      0.90804056     16015.798    
19848000 297.742094488171 166.494976414958 2748.1597711229501328 160960.843986232 0.90804056235462204949 28.902616908393099493 192.68411272262099487 16018.577123693099566
  19848000   0.5            297.74209      166.49498      2748.1598      160960.84      0.90804056     16018.577    
19850000 326.1466 252.6317
19852000 294.323527674202 -416.043433172159 2748.1279199209698163 160960.843986232 0.90804056235462204949 28.902616908393099493 192.68411272262099487 16021.299675583999488
  19852000   0.5            294.32353     -416.04343      2748.1279      160960.84      0.90804056     16021.3      
19856000 297.916140719731 -69.3824215600026 2748.1263846890201421 160960.843986232 0.90804056235462204949 28.902616908393099493 192.68411272262099487 16023.900646971700553
  19856000   0.5            297.91614     -69.382422      2748.1264      160960.84      0.90804056     16023.901    
19860000 306.1469 260.4488
19860000 297.678064355249 -7.14871759591479 2748.4146059349900497 160960.843986232 0.90804056235462204949 28.902616908393099493 192.68411272262099487 16027.363632091999534
  19860000   0.5            297.67806     -7.1487176      2748.4146      160960.84      0.90804056     16027.364    
19864000 293.666487410541 -143.825728838138 2748.5676001941301365 160960.843986232 0.90804056235462204949 28.902616908393099493 192.68411272262099487 16030.224690580200331
  19864000   0.5            293.66649     -143.82573      2748.5676      160960.84      0.90804056     16030.225    
19868000 291.475204565605 54.5754179789968 2748.3020521628100141 160960.843986232 0.90804056235462204949 28.902616908393099493 192.68411272262099487 16033.126672130400038
  19868000   0.5            291.4752       54.575418      2748.3021      160960.84      0.90804056     16033.127    
19870000 318.0547 256.7432
19872000 294.048951637746 -45.9016378342892 2748.4743606108199856 160960.843986232 0.90804056235462204949 28.902616908393099493 192.68411272262099487 16036.053144410499954
  19872000   0.5            294.04895     -45.901638      2748.4744      160960.84      0.90804056     16036.053    
19876000 294.737086572359 -445.356128438107 2748.3436490788499214 160960.843986232 0.90804056235462204949 28.902616908393099493 192.68411272262099487 16041.218456162299844
  19876000   0.5            294.73709     -445.35613      2748.3436      160960.84      0.90804056     16041.218    
19880000 327.2490 263.6274
19880000 295.682428825231 207.138922917485 2748.1988371726401965 160960.843986232 0.90804056235462204949 28.902616908393099493 192.68411272262099487 16044.677425985399168
  19880000   0.5            295.68243      207.13892      2748.1988      160960.84      0.90804056     16044.677    
19884000 300.425435540974 226.821111991546 2747.7057247488901339 160960.843986232 0.90804056235462204949 28.902616908393099493 192.68411272262099487 16047.716712568499133
  19884000   0.5            300.42544      226.82111      2747.7057      160960.84      0.90804056     16047.717    
19888000 297.405497942263 626.877533058831 2747.7851923059101864 160960.843986232 0.90804056235462204949 28.902616908393099493 192.68411272262099487 16052.019281719100036
  19888000   0.5            297.4055       626.87753      2747.7852      160960.84      0.90804056     16052.019    
19890000 315.0270 262.8089
19892000 299.578069428423 -116.576172422622 2747.9250639399401734 160960.843986232 0.90804056235462204949 28.902616908393099493 192.68411272262099487 16055.601052226100364
  19892000   0.5            299.57807     -116.57617      2747.9251      160960.84      0.90804056     16055.601    
19896000 294.475055538725 135.572319494229 2748.1235194969999611 160960.843986232 0.90804056235462204949 28.902616908393099493 192.68411272262099487 16058.591351840099378
  19896000   0.5            294.47506      135.57232      2748.1235      160960.84      0.90804056     16058.591    
19900000 323.8756 251.4259
19900000 296.640943330622 276.309185823601 2748.0135695410099288 160960.843986232 0.90804056235462204949 28.902616908393099493 192.68411272262099487 16061.25969554780022
  19900000   0.5            296.64094      276.30919      2748.0136      160960.84      0.90804056     16061.26     
19904000 299.397455317867 -86.3803348829221 2747.8261984707601187 160960.843986232 0.90804056235462204949 28.902616908393099493 192.68411272262099487 16064.122789631299383
  19904000   0.5            299.39746     -86.380335      2747.8262      160960.84      0.90804056     16064.123    
19908000 296.550367609703 -583.966188286136 2748.0328649536400007 160960.843986232 0.90804056235462204949 28.902616908393099493 192.68411272262099487 16068.538935756199862
  19908000   0.5            296.55037     -583.96619      2748.0329      160960.84      0.90804056     16068.539    
19910000 350.7219 247.5856
19912000 295.50919181704 -380.943099572082 2748.1251897612701214 160960.843986232 0.90804056235462204949 28.902616908393099493 192.68411272262099487 16071.259426024400454
  19912000   0.5            295.50919     -380.9431       2748.1252      160960.84      0.90804056     16071.259    
19916000 295.87600095898 -228.65041494178 2748.2032664840999132 160960.843986232 0.90804056235462204949 28.902616908393099493 192.68411272262099487 16074.122992715199871
  19916000   0.5            295.876       -228.65041      2748.2033      160960.84      0.90804056     16074.123    
19920000 360.1892 251.7040
19920000 296.89566982802 -323.341762789754 2748.0736908667399803 160960.843986232 0.90804056235462204949 28.902616908393099493 192.68411272262099487 16077.679112121999424
  19920000   0.5            296.89567     -323.34176      2748.0737      160960.84      0.90804056     16077.679    
19924000 295.359035871011 257.532934758865 2748.1985379590400953 160960.843986232 0.90804056235462204949 28.902616908393099493 192.68411272262099487 16079.912102071499248
  19924000   0.5            295.35904      257.53293      2748.1985      160960.84      0.90804056     16079.912    
19928000 293.669079776132 520.533366667023 2748.1817380976599452 160960.843986232 0.90804056235462204949 28.902616908393099493 192.68411272262099487 16083.523486917500122
  19928000   0.5            293.66908      520.53337      2748.1817      160960.84      0.90804056     16083.523    
19930000 343.0368 248.0428
19932000 298.001583110924 440.006908460114 2748.0481047427101657 160960.843986232 0.90804056235462204949 28.902616908393099493 192.68411272262099487 16086.516215862800891
  19932000   0.5            298.00158      440.00691      2748.0481      160960.84      0.90804056     16086.516    
19936000 295.50668530161 -17.0711420508197 2747.9376115142599701 160960.843986232 0.90804056235462204949 28.902616908393099493 192.68411272262099487 16089.367335158300193
  19936000   0.5            295.50669     -17.071142      2747.9376      160960.84      0.90804056     16089.367    
19940000 356.0321 256.8814
19940000 297.253900034087 -152.652854335798 2748.0377232347100289 160960.843986232 0.90804056235462204949 28.902616908393099493 192.68411272262099487 16091.64073283360085
  19940000   0.5            297.2539      -152.65285      2748.0377      160960.84      0.90804056     16091.641    
19944000 295.429799266625 473.005154762802 2748.2613631505200829 160960.843986232 0.90804056235462204949 28.902616908393099493 192.68411272262099487 16094.429799121899123
  19944000   0.5            295.4298       473.00515      2748.2614      160960.84      0.90804056     16094.43     
19948000 292.799988299264 1065.16921400604 2748.4703253302700432 160960.843986232 0.90804056235462204949 28.902616908393099493 192.68411272262099487 16097.518437953700413
  19948000   0.5            292.79999      1065.1692      2748.4703      160960.84      0.90804056     16097.518    
19950000 340.4124 244.1621
19952000 292.597643474773 167.788888821955 2748.567491546059955 160960.843986232 0.90804056235462204949 28.902616908393099493 192.68411272262099487 16100.484052980900742
  19952000   0.5            292.59764      167.78889      2748.5675      160960.84      0.90804056     16100.484    
19956000 294.495659575171 34.0154539134699 2748.6910934696102231 160960.843986232 0.90804056235462204949 28.902616908393099493 192.68411272262099487 16103.755428196500361
  19956000   0.5            294.49566      34.015454      2748.6911      160960.84      0.90804056     16103.755    
19960000 346.5837 260.4079
19960000 297.561422362759 -126.337963623865 2748.3326673846800077 160960.843986232 0.90804056235462204949 28.902616908393099493 192.68411272262099487 16107.658325510299619
  19960000   0.5            297.56142     -126.33796      2748.3327      160960.84      0.90804056     16107.658    
19964000 293.962259448475 135.189238116616 2747.9156956676602022 160960.843986232 0.90804056235462204949 28.902616908393099493 192.68411272262099487 16111.116458045500622
  19964000   0.5            293.96226      135.18924      2747.9157      160960.84      0.90804056     16111.116    
19968000 298.447295246408 539.113146096484 2747.8087735072199393 160960.843986232 0.90804056235462204949 28.902616908393099493 192.68411272262099487 16114.809854252600417
  19968000   0.5            298.4473       539.11315      2747.8088      160960.84      0.90804056     16114.81     
19970000 342.5791 255.0356
19972000 303.426432834086 487.561654739915 2747.684387831190179 160960.843986232 0.90804056235462204949 28.902616908393099493 192.68411272262099487 16118.301091899700623
  19972000   0.5            303.42643      487.56165      2747.6844      160960.84      0.90804056     16118.301    
19976000 299.943444926694 -135.498232577328 2747.901969926700076 160960.843986232 0.90804056235462204949 28.902616908393099493 192.68411272262099487 16121.249877895199461
  19976000   0.5            299.94344     -135.49823      2747.902       160960.84      0.90804056     16121.25     
19980000 320.4736 252.7018
19980000 302.190987975812 260.60523865955 2747.9501536964999104 160960.843986232 0.90804056235462204949 28.902616908393099493 192.68411272262099487 16124.013855782499377
  19980000   0.5            302.19099      260.60524      2747.9502      160960.84      0.90804056     16124.014    
19984000 294.901269674889 -113.841880169461 2748.5550332308498582 160960.843986232 0.90804056235462204949 28.902616908393099493 192.68411272262099487 16127.851982712099925
  19984000   0.5            294.90127     -113.84188      2748.555       160960.84      0.90804056     16127.852    
19988000 295.17276679567 732.572875961421 2748.7198975056298877 160960.843986232 0.90804056235462204949 28.902616908393099493 192.68411272262099487 16131.934158204399864
  19988000   0.5            295.17277      732.57288      2748.7199      160960.84      0.90804056     16131.934    
19990000 336.1620 250.3137
19992000 295.707891217797 247.049353642956 2748.5516223829799856 160960.843986232 0.90804056235462204949 28.902616908393099493 192.68411272262099487 16135.5473053720998
  19992000   0.5            295.70789      247.04935      2748.5516      160960.84      0.90804056     16135.547    
19996000 296.007913369687 -407.040409340205 2748.2971898531000079 160960.843986232 0.90804056235462204949 28.902616908393099493 192.68411272262099487 16138.604796652200093
  19996000   0.5            296.00791     -407.04041      2748.2972      160960.84      0.90804056     16138.605    
20000000 325.3989 264.1391
20000000 299.554397297502 13.7386310972226 2748.1695931076601482 160960.843986232 0.90804056235462204949 28.902616908393099493 192.68411272262099487 16142.656580640499669
  20000000   0.5            299.5544       13.738631      2748.1696      160960.84      0.90804056     16142.657    
Loop time of 97658.9 on 36 procs for 20000000 steps with 6000 atoms

Performance: 8.847 ns/day, 2.713 hours/ns, 204.794 timesteps/s, 1.229 Matom-step/s
99.2% CPU use with 36 MPI tasks x no OpenMP threads

MPI task timing breakdown:
Section |  min time  |  avg time  |  max time  |%varavg| %total
---------------------------------------------------------------
Pair    | 10188      | 13508      | 17309      |1528.5 | 13.83
Bond    | 100.64     | 111.62     | 126.69     |  64.8 |  0.11
Kspace  | 69722      | 72653      | 75848      | 599.3 | 74.40
Neigh   | 162.97     | 169.83     | 175.63     |  28.1 |  0.17
Comm    | 7753.7     | 8841.4     | 9951.5     | 631.9 |  9.05
Output  | 0.34501    | 2.4854     | 2.5536     |  22.9 |  0.00
Modify  | 66.968     | 73.562     | 87.439     |  51.9 |  0.08
Other   |            | 2298       |            |       |  2.35

Nlocal:        166.667 ave         189 max         140 min
Histogram: 2 2 3 6 2 5 5 4 3 4
Nghost:        3616.17 ave        3910 max        3306 min
Histogram: 1 2 5 5 8 1 3 5 4 2
Neighs:        43988.6 ave       53307 max       33787 min
Histogram: 3 2 4 4 4 4 3 5 4 3

Total # of neighbors = 1583590
Ave neighs/atom = 263.93167
Ave special neighs/atom = 2
Neighbor list builds = 96136
Dangerous builds = 0
