units		    real
atom_style	    full
boundary        p p p
pair_style	    lj/cut/coul/long 12.0
pair_modify     mix arithmetic tail yes   # Geometric for EPM2
kspace_style    pppm 1e-6
bond_style      harmonic
angle_style     harmonic

read_data       ./data.lmp           # read the positions --------------comment it out for restarting
Reading data file ...
  orthogonal box = (0 0 0) to (54.965023 54.965023 54.965023)
  3 by 3 by 4 MPI processor grid
  reading atoms ...
  6000 atoms
  scanning bonds ...
  1 = max bonds/atom
  scanning angles ...
  1 = max angles/atom
  reading bonds ...
  4000 bonds
  reading angles ...
  2000 angles
Finding 1-2 1-3 1-4 neighbors ...
  special bond factors lj:    0        0        0       
  special bond factors coul:  0        0        0       
     2 = max # of 1-2 neighbors
     1 = max # of 1-3 neighbors
     1 = max # of 1-4 neighbors
     2 = max # of special neighbors
  special bonds CPU = 0.002 seconds
  read_data CPU = 0.112 seconds
#read_restart   2.restart

#----------------------------------------------------------------------------#
# FORCEFIELD - TraPPE Flexible model for CO2 (DOI- 10.1021/acs.jced.9b00006)
#----------------------------------------------------------------------------#

pair_coeff      1   1  0.1569891239   3.05             # [O]=C=O
pair_coeff      2   2  0.0536545107   2.8              # O=[C]=O

bond_coeff      1   1028.266  1.16

angle_coeff     1   55.96  180

mass            1   15.9994                       # O
mass            2   12.0107                       # C

set type        1   charge     -0.3500            # O
Setting atom values ...
  4000 settings made for charge
set type        2   charge     +0.7000            # C
Setting atom values ...
  2000 settings made for charge

#------------------------ VARIABLES------------------------------------------#

variable  TEMP_INDEX       equal 300  # in K
variable  PRESS_INDEX      equal 160  # in bar
variable  RandomSeed       equal 3000  # RANDOM SEED
variable  nz_layers        equal 20
variable  nx_layers        equal 3
variable  timestep         equal 0.5

variable  simulationTemp   equal ${TEMP_INDEX}
variable  simulationTemp   equal 300
variable  pressure         equal 0.987*${PRESS_INDEX}
variable  pressure         equal 0.987*160

variable  Ninptpre         equal 100000
variable  Ninpt            equal 1000000
variable  Npnpt            equal 2000000

variable  equi_run         equal 1000000           #500000
variable  npt_run          equal 10000000           #5000000
variable  NBR              equal ${npt_run}/100   # Block averaging for density (NPT)
variable  NBR              equal 10000000/100   

variable  Density          equal density
variable  Volume           equal vol

variable  dumpfreq         equal 1000
variable  thermofreq       equal 1000
variable  printfreq        equal 1000
variable  restartfreq      equal 1000000

variable  NVT_init         equal 500000
variable  NVE_reshape      equal 10000
variable  NVT_run_2        equal 500000
variable  NVE_cuboid       equal 500000

variable  thermo_num       equal 1000

#---------------------------- GROUPS/NEIGHBOUR - LIST -----------------------------------------------------------------------#

group           oxy  type 1
4000 atoms in group oxy
group           carb type 2
2000 atoms in group carb

neighbor	    3.0 bin
neigh_modify    every 1 delay 0 check yes
run_style       verlet

#---------------------------- CONGUGATE-GRADIENT MINIMIZATION --------------------------------------------------------#

#minimize energytolerance forcetolerance max_iterations_of_minimizer max_number_of_force_or_energy_evaluations
minimize        1e-6 1e-8 100000 10000000
PPPM initialization ...
  using 12-bit tables for long-range coulomb (../kspace.cpp:342)
  G vector (1/distance) = 0.26765441
  grid = 50 50 50
  stencil order = 5
  estimated absolute RMS force accuracy = 0.00041666652
  estimated relative force accuracy = 1.2547789e-06
  using double precision KISS FFT
  3d grid and FFT values/proc = 12500 5000
Generated 1 of 1 mixed pair_coeff terms from arithmetic mixing rule
Neighbor list info ...
  update: every = 1 steps, delay = 0 steps, check = yes
  max neighbors/atom: 2000, page size: 100000
  master list distance cutoff = 15
  ghost atom cutoff = 15
  binsize = 7.5, bins = 8 8 8
  1 neighbor lists, perpetual/occasional/extra = 1 0 0
  (1) pair lj/cut/coul/long, perpetual
      attributes: half, newton on
      pair build: half/bin/newton
      stencil: half/bin/3d
      bin: standard
Per MPI rank memory allocation (min/avg/max) = 9.006 | 9.092 | 9.246 Mbytes
   Step          Temp          E_pair         E_mol          TotEng         Press     
         0   0             -1994.5914      6.626504e-05  -1994.5914      5536.5093    
      1599   0             -9452.4484      18.723026     -9433.7254     -486.69609    
Loop time of 16.6392 on 36 procs for 1599 steps with 6000 atoms

99.3% CPU use with 36 MPI tasks x no OpenMP threads

Minimization stats:
  Stopping criterion = energy tolerance
  Energy initial, next-to-last, final = 
     -1994.59136846609  -9433.71655615377  -9433.72535612576
  Force two-norm initial, final = 460.00158 6.5966423
  Force max component initial, final = 18.184313 0.92015529
  Final line search alpha, max atom move = 0.034210035 0.031478544
  Iterations, force evaluations = 1599 3141

MPI task timing breakdown:
Section |  min time  |  avg time  |  max time  |%varavg| %total
---------------------------------------------------------------
Pair    | 1.0602     | 3.1327     | 5.9884     |  60.5 | 18.83
Bond    | 0.014035   | 0.020143   | 0.026755   |   2.2 |  0.12
Kspace  | 9.0652     | 12.082     | 14.189     |  32.0 | 72.61
Neigh   | 0.044217   | 0.04674    | 0.048215   |   0.5 |  0.28
Comm    | 1.0628     | 1.1625     | 1.3738     |   6.7 |  6.99
Output  | 0          | 0          | 0          |   0.0 |  0.00
Modify  | 0          | 0          | 0          |   0.0 |  0.00
Other   |            | 0.1956     |            |       |  1.18

Nlocal:        166.667 ave         269 max          89 min
Histogram: 2 4 4 7 7 5 3 1 1 2
Nghost:         3689.5 ave        4496 max        3219 min
Histogram: 6 8 2 3 6 6 1 1 1 2
Neighs:        48734.1 ave      106272 max       11662 min
Histogram: 2 4 9 5 8 3 2 1 0 2

Total # of neighbors = 1754428
Ave neighs/atom = 292.40467
Ave special neighs/atom = 2
Neighbor list builds = 21
Dangerous builds = 0

#---------------------------- NPT simulations  ---------------------------------------------------------------------#

fix runnpt all npt temp ${simulationTemp} ${simulationTemp} 10 iso ${pressure} ${pressure} 100
fix runnpt all npt temp 300 ${simulationTemp} 10 iso ${pressure} ${pressure} 100
fix runnpt all npt temp 300 300 10 iso ${pressure} ${pressure} 100
fix runnpt all npt temp 300 300 10 iso 157.92 ${pressure} 100
fix runnpt all npt temp 300 300 10 iso 157.92 157.92 100

compute theta       all     angle/local   theta
compute length      all     bond/local    dist

compute theta_ave   all     reduce        ave       c_theta
compute length_ave  all     reduce        ave       c_length

thermo_style custom step pe ke etotal press temp c_theta_ave c_length_ave v_Density
thermo_modify flush yes
thermo ${thermo_num}
thermo 1000

velocity	    all create ${simulationTemp} ${RandomSeed} mom yes rot yes dist gaussian
velocity	    all create 300 ${RandomSeed} mom yes rot yes dist gaussian
velocity	    all create 300 3000 mom yes rot yes dist gaussian

#-----------------------
# Run (Pre-Initialization)
#-----------------------

timestep    0.1
run         ${Ninptpre}
run         100000
PPPM initialization ...
  using 12-bit tables for long-range coulomb (../kspace.cpp:342)
  G vector (1/distance) = 0.26765441
  grid = 50 50 50
  stencil order = 5
  estimated absolute RMS force accuracy = 0.00041666652
  estimated relative force accuracy = 1.2547789e-06
  using double precision KISS FFT
  3d grid and FFT values/proc = 12500 5000
Generated 1 of 1 mixed pair_coeff terms from arithmetic mixing rule
Per MPI rank memory allocation (min/avg/max) = 8.033 | 8.157 | 8.932 Mbytes
   Step         PotEng         KinEng         TotEng         Press           Temp       c_theta_ave    c_length_ave    v_Density   
      1599  -9433.7254      5364.5638     -4069.1615      990.05747      300            179.41442      1.160839       0.88016936   
      2000  -6559.1217      4234.0862     -2325.0355      1404.5427      236.78083      174.757        1.1613419      0.86707026   
      3000  -4600.4773      5333.9646      733.48729      700.13846      298.28881      174.5896       1.1604752      0.73530776   
      4000  -3924.2211      5617.6982      1693.4772      49.450357      314.15592      175.42677      1.1608957      0.69398596   
      5000  -4038.4458      6243.3052      2204.8594      571.94705      349.14144      175.39881      1.1606041      0.67424767   
      6000  -3138.995       5589.1327      2450.1378      251.08917      312.55846      175.21724      1.1606261      0.65757998   
      7000  -2196.8516      4787.5575      2590.7059     -39.559093      267.73234      174.90833      1.1605963      0.64753379   
      8000  -2102.1705      4777.9909      2675.8205      9.030618       267.19736      174.91181      1.1605586      0.64772347   
      9000  -2177.2116      4969.9693      2792.7577     -132.09288      277.93327      175.03729      1.1607489      0.64754582   
     10000  -2546.1884      5432.4809      2886.2925      155.11113      303.79809      175.0437       1.1607235      0.65008877   
     11000  -2937.1588      5883.457       2946.2982      481.85957      329.01782      174.93524      1.1605156      0.64955269   
     12000  -2773.8288      5795.9761      3022.1473      344.97773      324.12567      174.84999      1.1605208      0.64321319   
     13000  -2544.2287      5556.5977      3012.369       320.1272       310.73902      174.84049      1.1606671      0.659839     
     14000  -2135.7357      5168.2006      3032.465       72.681482      289.01887      174.84534      1.1605979      0.65374719   
     15000  -1866.9912      4841.188       2974.1967     -82.716349      270.73149      174.91365      1.1606873      0.67253334   
     16000  -1897.9757      4905.7302      3007.7546     -67.744987      274.34086      174.87002      1.1606281      0.6722533    
     17000  -2244.9078      5296.703       3051.7953      142.25851      296.20505      174.84282      1.1606085      0.67650363   
     18000  -2637.6729      5656.2578      3018.5849      345.20867      316.31227      174.85022      1.1605778      0.68374827   
     19000  -2735.6391      5862.6075      3126.9683      419.57718      327.85186      174.82546      1.1605857      0.68333047   
     20000  -2514.3881      5634.7358      3120.3477      226.35271      315.1087       174.85644      1.1607264      0.6897013    
     21000  -2122.3144      5249.8776      3127.5632      423.69624      293.58646      174.84383      1.1602864      0.6887242    
     22000  -1856.1548      4995.8701      3139.7153     -304.46935      279.38171      174.87197      1.1609308      0.69864211   
     23000  -1764.9895      4949.1527      3184.1633     -386.11901      276.76916      174.79379      1.1609318      0.69773839   
     24000  -2053.2159      5198.5108      3145.2949      700.48359      290.71389      174.83169      1.1600169      0.70390253   
     25000  -2385.9442      5601.6985      3215.7543      27.168908      313.26117      174.81039      1.1608464      0.70508451   
     26000  -2565.9678      5751.0104      3185.0427      312.78223      321.61107      174.81348      1.1606621      0.71212066   
     27000  -2502.4547      5728.1332      3225.6784      451.24013      320.33172      174.85735      1.1604174      0.71075442   
     28000  -2220.3368      5417.9454      3197.6086      27.712416      302.98523      174.82747      1.1607993      0.72121134   
     29000  -1855.4147      5003.7885      3148.3739      4.4467061      279.82453      174.78976      1.1606141      0.72244896   
     30000  -1729.7554      5008.995       3279.2396      141.59179      280.11569      174.77575      1.1604821      0.72236225   
     31000  -1915.6003      5182.163       3266.5627     -267.20307      289.79968      174.73164      1.1609532      0.72804381   
     32000  -2291.7996      5477.9938      3186.1943      431.22879      306.34329      174.81849      1.1604424      0.73857261   
     33000  -2505.6652      5824.2391      3318.5739      563.12755      325.70621      174.80652      1.160417       0.73898281   
     34000  -2577.1334      5781.4977      3204.3643     -234.83391      323.316        174.87688      1.1611595      0.74714154   
     35000  -2290.2426      5361.7444      3071.5018      557.55883      299.84233      174.91609      1.1603066      0.75344805   
     36000  -1966.7784      5117.0206      3150.2422      55.267335      286.15675      174.82312      1.160597       0.75436944   
     37000  -1919.5835      4982.993       3063.4095     -217.39364      278.66159      174.83699      1.1608162      0.7665065    
     38000  -1938.0461      5091.7271      3153.6809      220.31802      284.74228      174.85287      1.1604497      0.7634415    
     39000  -2171.1856      5385.6778      3214.4922      61.968015      301.18074      174.84339      1.1607048      0.75764023   
     40000  -2477.6846      5663.768       3186.0834      147.11553      316.73226      174.84049      1.1607795      0.76398874   
     41000  -2504.0745      5742.4852      3238.4107      800.99322      321.13432      174.75197      1.1602298      0.77085335   
     42000  -2247.6746      5504.4355      3256.7609     -103.0381       307.82198      174.67966      1.160878       0.76957539   
     43000  -1985.7562      5187.5064      3201.7502     -154.00309      290.0985       174.73976      1.160793       0.77399108   
     44000  -1925.6425      5026.2512      3100.6086      608.14358      281.0807       174.86055      1.1601014      0.78541326   
     45000  -1980.5887      5106.6816      3126.0928     -351.47883      285.57857      174.87062      1.1609376      0.7876843    
     46000  -2146.9904      5322.9068      3175.9165      94.654023      297.67043      174.84139      1.1606677      0.78401359   
     47000  -2382.47        5632.8608      3250.3908      433.34492      315.00384      174.90162      1.1603765      0.7727064    
     48000  -2503.2504      5602.5082      3099.2578      180.93972      313.30645      174.84813      1.160752       0.78362038   
     49000  -2332.613       5506.5078      3173.8947      347.16799      307.93786      174.73014      1.1605199      0.78205706   
     50000  -2092.001       5314.2064      3222.2054      264.85561      297.18388      174.68068      1.1605146      0.78944024   
     51000  -1928.4638      5088.7813      3160.3175     -147.57797      284.57754      174.80401      1.1608214      0.79832205   
     52000  -1978.3357      5054.4989      3076.1632      83.4684        282.66038      174.82357      1.1605636      0.80335459   
     53000  -2196.8435      5282.5192      3085.6757      184.21653      295.41185      174.80322      1.1605042      0.80758423   
     54000  -2440.13        5474.3795      3034.2495      1.677978       306.14117      174.82379      1.1608002      0.82139222   
     55000  -2619.9014      5510.6905      2890.789       601.97732      308.17177      174.85006      1.1604011      0.82671849   
     56000  -2494.5329      5566.2116      3071.6787      281.34187      311.27665      174.84937      1.1605446      0.81302895   
     57000  -2325.812       5401.3807      3075.5687     -419.62587      302.05889      174.85246      1.1611175      0.82222108   
     58000  -2049.6069      5097.4351      3047.8282      912.95683      285.06148      174.80432      1.1599052      0.81712606   
     59000  -1934.3681      5037.0654      3102.6974     -204.53809      281.68546      174.77708      1.1607908      0.81662399   
     60000  -2004.364       5175.061       3170.697      -323.95633      289.40252      174.74697      1.1608825      0.81603461   
     61000  -2230.7264      5452.168       3221.4415      785.36803      304.89904      174.76379      1.1601358      0.82276472   
     62000  -2546.661       5598.1566      3051.4956     -8.7948486      313.0631       174.80385      1.1608476      0.83161531   
     63000  -2616.7656      5630.066       3013.3004      241.77899      314.84755      174.85214      1.1606598      0.83684282   
     64000  -2460.0775      5481.7321      3021.6546      478.82251      306.55235      174.80118      1.1604291      0.83793312   
     65000  -2259.141       5162.8556      2903.7145     -199.53095      288.71996      174.92179      1.1607472      0.83264028   
     66000  -2068.3346      5178.6611      3110.3266     -17.707245      289.60385      174.88811      1.1606886      0.83696191   
     67000  -2110.1818      5184.7117      3074.5299      299.07861      289.94221      174.84026      1.1604648      0.83629638   
     68000  -2297.3244      5353.6597      3056.3353     -178.79664      299.39021      174.87044      1.1608354      0.83840139   
     69000  -2421.8551      5475.881       3054.0259      415.64831      306.22514      174.84109      1.1604488      0.8362791    
     70000  -2510.033       5554.3482      3044.3153      695.89696      310.61322      174.8434       1.1603224      0.83585676   
     71000  -2437.1502      5492.6851      3055.5349     -298.4575       307.16486      174.87077      1.1610161      0.83430582   
     72000  -2263.1761      5188.1074      2924.9313      447.42821      290.13211      174.87399      1.160372       0.8411528    
     73000  -2049.6613      5105.6037      3055.9424      148.21297      285.51829      174.83179      1.1605041      0.83324022   
     74000  -1979.1696      5104.8008      3125.6312     -407.65408      285.47339      174.7713       1.1609906      0.83025283   
     75000  -2156.598       5268.3615      3111.7635      539.89519      294.62012      174.78963      1.1603008      0.8282548    
     76000  -2304.6038      5511.279       3206.6752      191.84821      308.20468      174.85128      1.1606547      0.82855707   
     77000  -2405.4049      5612.2785      3206.8735      53.826495      313.85283      174.83792      1.1607584      0.82513123   
     78000  -2376.436       5546.3583      3169.9224      487.50922      310.16641      174.80544      1.1604228      0.83292485   
     79000  -2261.6033      5381.4937      3119.8904      121.88294      300.94676      174.77794      1.1606697      0.8432413    
     80000  -2113.5179      5184.1619      3070.6439     -29.409118      289.91146      174.74025      1.160688       0.84374037   
     81000  -2072.0195      5162.5916      3090.5722      470.53961      288.7052       174.76145      1.1602328      0.84162689   
     82000  -2223.4807      5182.2684      2958.7877     -290.79784      289.80558      174.81016      1.160904       0.84644798   
     83000  -2460.9803      5387.8193      2926.8389     -54.302302      301.3005       174.89092      1.1607427      0.84649797   
     84000  -2675.0213      5560.9127      2885.8913      813.59575      310.98032      174.86367      1.1602741      0.86650894   
     85000  -2627.8116      5415.3926      2787.581       15.474334      302.84247      174.92591      1.1607836      0.86057684   
     86000  -2460.4581      5387.5197      2927.0616      160.31731      301.28375      174.88876      1.1605915      0.85664487   
     87000  -2254.958       5307.5589      3052.6009      297.06698      296.81214      174.86373      1.1604644      0.86123567   
     88000  -2156.1553      5194.1019      3037.9466     -483.21543      290.46734      174.85296      1.16102        0.85642102   
     89000  -2200.6238      5286.6354      3086.0116      443.15628      295.64204      174.84633      1.1604097      0.85722448   
     90000  -2313.1315      5298.5031      2985.3716      423.22031      296.30572      174.89466      1.1603109      0.84643353   
     91000  -2570.9463      5412.0508      2841.1045     -103.54616      302.65559      174.93037      1.1608878      0.86191731   
     92000  -2648.6773      5519.5216      2870.8443      493.52231      308.66563      174.84207      1.1604414      0.8700865    
     93000  -2466.6138      5395.7082      2929.0944      244.96639      301.74167      174.80194      1.1605006      0.86356947   
     94000  -2342.848       5308.0907      2965.2426     -80.230731      296.84188      174.81572      1.1608489      0.86831529   
     95000  -2142.449       5224.1375      3081.6885      493.50996      292.147        174.82474      1.1602749      0.85742393   
     96000  -2079.3214      5332.6167      3253.2953      18.96215       298.21343      174.80617      1.1606369      0.84851314   
     97000  -2270.1088      5368.321       3098.2122     -415.6297       300.21011      174.90139      1.1610701      0.85205628   
     98000  -2407.6345      5496.3372      3088.7027      763.9876       307.3691       174.902        1.1601392      0.84820067   
     99000  -2422.3534      5515.4699      3093.1164      70.913852      308.43905      174.86478      1.1607356      0.84610618   
    100000  -2360.6491      5360.8617      3000.2126     -91.98043       299.79297      174.85499      1.1608203      0.84733402   
    101000  -2365.0729      5308.0539      2942.981       716.03949      296.83982      174.93036      1.1601858      0.85233882   
    101599  -2206.6191      5377.4571      3170.838       283.84203      300.72102      174.79463      1.1604664      0.84855535   
Loop time of 501.617 on 36 procs for 100000 steps with 6000 atoms

Performance: 1.722 ns/day, 13.934 hours/ns, 199.355 timesteps/s, 1.196 Matom-step/s
99.2% CPU use with 36 MPI tasks x no OpenMP threads

MPI task timing breakdown:
Section |  min time  |  avg time  |  max time  |%varavg| %total
---------------------------------------------------------------
Pair    | 29.909     | 57.862     | 89.995     | 187.8 | 11.54
Bond    | 0.60034    | 0.73051    | 0.91545    |   9.1 |  0.15
Kspace  | 310.19     | 346.47     | 373.91     |  82.4 | 69.07
Neigh   | 0.20172    | 0.21214    | 0.2196     |   1.0 |  0.04
Comm    | 30.307     | 33.583     | 39.039     |  32.8 |  6.69
Output  | 0.012948   | 0.013277   | 0.022686   |   1.4 |  0.00
Modify  | 29.127     | 43.298     | 61.719     | 203.7 |  8.63
Other   |            | 19.45      |            |       |  3.88

Nlocal:        166.667 ave         196 max         131 min
Histogram: 2 1 2 3 6 6 7 2 5 2
Nghost:        3442.56 ave        3560 max        3340 min
Histogram: 3 3 4 1 8 6 6 2 1 2
Neighs:        41255.2 ave       51593 max       30752 min
Histogram: 3 1 3 4 6 7 3 6 1 2

Total # of neighbors = 1485188
Ave neighs/atom = 247.53133
Ave special neighs/atom = 2
Neighbor list builds = 120
Dangerous builds = 0

timestep    0.2
run         ${Ninptpre}
run         100000
PPPM initialization ...
  using 12-bit tables for long-range coulomb (../kspace.cpp:342)
  G vector (1/distance) = 0.27141563
  grid = 54 54 54
  stencil order = 5
  estimated absolute RMS force accuracy = 0.0003062943
  estimated relative force accuracy = 9.2239619e-07
  using double precision KISS FFT
  3d grid and FFT values/proc = 13125 5832
Generated 1 of 1 mixed pair_coeff terms from arithmetic mixing rule
Per MPI rank memory allocation (min/avg/max) = 8.162 | 8.307 | 9.027 Mbytes
   Step         PotEng         KinEng         TotEng         Press           Temp       c_theta_ave    c_length_ave    v_Density   
    101599  -2206.6253      5377.4571      3170.8318      283.85199      300.72102      174.79463      1.1604664      0.84855535   
    102000  -2401.6225      5553.6873      3152.0648      716.05793      310.57626      174.73481      1.1602444      0.85200291   
    103000  -2149.7242      5343.9726      3194.2484     -678.58469      298.84848      174.82174      1.161211       0.83932504   
    104000  -2074.2983      5134.0007      3059.7025     -61.521493      287.10633      174.7784       1.1606615      0.84254399   
    105000  -2520.8204      5570.6911      3049.8706      695.00688      311.52716      174.87229      1.1602974      0.85841229   
    106000  -2492.2112      5481.0128      2988.8015      28.065476      306.51212      174.98803      1.1607919      0.86500899   
    107000  -2231.1843      5214.2237      2983.0394     -322.56735      291.5926       174.8992       1.1608901      0.85791717   
    108000  -2273.1161      5234.9913      2961.8752      368.79974      292.75397      174.79757      1.1604365      0.85109868   
    109000  -2396.1674      5473.7336      3077.5662      371.05106      306.10505      174.72835      1.1604629      0.85049697   
    110000  -2229.1115      5334.0577      3104.9462     -349.9246       298.29402      174.85983      1.1609847      0.8485957    
    111000  -2230.9549      5285.2047      3054.2497      110.18868      295.56203      174.81628      1.1606059      0.84972762   
    112000  -2363.2782      5473.9423      3110.664       860.92931      306.11672      174.84001      1.1601289      0.85297666   
    113000  -2416.8277      5402.7544      2985.9267     -209.50328      302.13571      174.83218      1.1609166      0.84740915   
    114000  -2147.663       5200.3624      3052.6994     -159.67361      290.81744      174.82196      1.1608042      0.83695215   
    115000  -2318.1809      5326.8213      3008.6404      689.5662       297.88934      174.83123      1.1602909      0.85604644   
    116000  -2490.5891      5522.0364      3031.4473      412.28673      308.80626      174.82319      1.1605336      0.85588274   
    117000  -2273.7846      5245.2083      2971.4237     -356.90953      293.32533      174.79455      1.1609508      0.84936627   
    118000  -2357.5842      5271.028       2913.4437      293.18015      294.76924      174.91132      1.1605168      0.86626475   
    119000  -2346.4464      5435.3188      3088.8723      950.11794      303.95679      174.78953      1.1600133      0.853383     
    120000  -2418.9299      5410.3526      2991.4227     -279.08157      302.56062      174.80921      1.160931       0.86312033   
    121000  -2249.9199      5373.3864      3123.4665     -104.50532      300.49338      174.86792      1.1607829      0.854328     
    122000  -2335.8374      5331.1713      2995.3339      751.9769       298.1326       174.80081      1.1602289      0.86433951   
    123000  -2419.4114      5452.4496      3033.0382      99.965296      304.91479      174.87479      1.1606987      0.86025064   
    124000  -2205.9379      5340.0125      3134.0746     -150.29154      298.62703      174.8099       1.1607573      0.83468338   
    125000  -2236.1777      5278.3788      3042.2011      358.91747      295.18031      174.81087      1.1604457      0.85487881   
    126000  -2370.809       5454.2995      3083.4905      675.30879      305.01825      174.7311       1.1603299      0.86408      
    127000  -2391.4117      5375.6692      2984.2575     -147.61852      300.62104      174.83632      1.1608902      0.85036653   
    128000  -2165.6647      5247.4755      3081.8109      39.972924      293.45213      174.78969      1.1606141      0.83805332   
    129000  -2281.2974      5384.7973      3103.4999      1167.9829      301.13151      174.74686      1.1598541      0.85931747   
    130000  -2389.9958      5421.2468      3031.251      -81.890658      303.16986      174.88462      1.1608099      0.85121603   
    131000  -2183.9049      5453.5575      3269.6526     -204.56468      304.97675      174.86585      1.1608929      0.84332742   
    132000  -2236.2638      5330.1777      3093.9139      664.52255      298.07704      174.90152      1.1601791      0.84356017   
    133000  -2297.0151      5345.6921      3048.6769      338.39703      298.94464      174.81502      1.1604445      0.84638974   
    134000  -2344.3182      5309.1168      2964.7986     -236.43746      296.89926      174.77773      1.1609138      0.84272895   
    135000  -2213.6107      5369.8254      3156.2147      330.34658      300.29424      174.73876      1.1604645      0.84080419   
    136000  -2208.4231      5392.8972      3184.4741      1039.6269      301.58447      174.74147      1.1598697      0.84747005   
    137000  -2302.9821      5507.1586      3204.1765     -222.08086      307.97426      174.84827      1.1610135      0.84534795   
    138000  -2331.9983      5304.6034      2972.605      -43.206981      296.64686      174.85043      1.1607429      0.85048184   
    139000  -2265.3102      5329.7711      3064.4609      407.10867      298.0543       174.73926      1.1604538      0.85881054   
    140000  -2271.8295      5293.8703      3022.0408      118.5757       296.04664      174.78322      1.1606003      0.85030369   
    141000  -2381.1267      5362.1612      2981.0345     -205.31905      299.86564      174.81016      1.1609262      0.85992102   
    142000  -2134.6858      5278.2944      3143.6085      592.61326      295.17559      174.75988      1.1602491      0.84689007   
    143000  -2274.1716      5389.9651      3115.7935      363.91402      301.4205       174.86755      1.1605173      0.8645593    
    144000  -2282.8815      5466.6516      3183.7701     -111.83798      305.70901      174.84651      1.1607698      0.84351242   
    145000  -2274.4632      5293.2252      3018.762       62.929124      296.01056      174.87004      1.1606617      0.84588526   
    146000  -2310.3018      5326.8398      3016.538       903.12224      297.89038      174.87073      1.1600323      0.85307944   
    147000  -2151.9768      5269.1015      3117.1247     -52.064827      294.6615       174.78025      1.1607002      0.83625742   
    148000  -2440.4862      5367.2232      2926.737       27.649269      300.14872      174.84303      1.1607716      0.85400979   
    149000  -2295.1641      5293.9031      2998.7389      828.83493      296.04847      174.81538      1.1601311      0.84891848   
    150000  -2215.7784      5235.5221      3019.7437      165.71851      292.78366      174.76623      1.1605143      0.84494467   
    151000  -2308.5232      5395.1156      3086.5924     -156.16168      301.70853      174.71871      1.1608813      0.86145146   
    152000  -2485.7961      5473.5415      2987.7454      315.00702      306.09431      174.80765      1.1604711      0.86999668   
    153000  -2375.2342      5414.0511      3038.8169      848.58902      302.76745      174.85528      1.1600154      0.8649106    
    154000  -2318.7566      5344.1969      3025.4404     -306.91264      298.86103      174.86312      1.1610534      0.87208678   
    155000  -2288.5021      5449.5104      3161.0083      68.618059      304.75043      174.7803       1.1606874      0.84964023   
    156000  -2243.5295      5403.8032      3160.2736      697.77905      302.19436      174.78238      1.1602878      0.86119022   
    157000  -2287.2672      5293.4082      3006.141      -41.786987      296.02079      174.76916      1.1607216      0.85826811   
    158000  -2288.4633      5379.0629      3090.5996     -258.39763      300.81082      174.8475       1.1609274      0.85782317   
    159000  -2370.247       5394.4581      3024.2111      430.48267      301.67176      174.82756      1.1603335      0.86036597   
    160000  -2433.4125      5320.5762      2887.1638      187.00667      297.5401       174.91577      1.1605597      0.87048878   
    161000  -2304.9903      5316.3549      3011.3646     -46.927018      297.30403      174.82981      1.160822       0.86433518   
    162000  -2314.5372      5325.6317      3011.0945      134.15767      297.82281      174.76889      1.1606196      0.85949941   
    163000  -2297.5339      5325.538       3028.0041      1053.3849      297.81758      174.78281      1.1597423      0.85385589   
    164000  -2418.6641      5409.9659      2991.3018     -25.394392      302.539        174.8539       1.160818       0.87750399   
    165000  -2363.8705      5354.9539      2991.0835     -150.94788      299.46259      174.93552      1.1607812      0.86440098   
    166000  -2267.6712      5341.6526      3073.9814      315.50133      298.71874      174.79609      1.1604727      0.85025324   
    167000  -2260.7034      5391.8784      3131.175       293.02236      301.5275       174.73868      1.1605611      0.86136679   
    168000  -2298.3969      5293.4695      2995.0726     -270.94311      296.02422      174.80656      1.1609418      0.86262178   
    169000  -2336.2666      5431.1309      3094.8643      235.10028      303.7226       174.85686      1.1605825      0.85493204   
    170000  -2396.6062      5331.1219      2934.5157      613.1551       298.12984      174.81477      1.1602516      0.87297916   
    171000  -2226.7024      5299.5325      3072.83       -130.50637      296.36328      174.68675      1.1607805      0.85836659   
    172000  -2329.647       5319.4987      2989.8518      76.777734      297.47985      174.86141      1.1606758      0.85879565   
    173000  -2371.311       5366.9827      2995.6717      337.10609      300.13527      174.92997      1.1604588      0.8657242    
    174000  -2423.379       5419.6493      2996.2703      117.62356      303.08052      174.92162      1.1607195      0.86578994   
    175000  -2238.2906      5227.2925      2989.0019     -395.78031      292.32344      174.80484      1.1609687      0.84897761   
    176000  -2299.1662      5440.3398      3141.1736      400.6384       304.23758      174.89867      1.1603781      0.8540659    
    177000  -2308.0121      5514.0629      3206.0508      240.87132      308.36037      174.85565      1.1604968      0.85048877   
    178000  -2170.6641      5369.3905      3198.7264      83.73137       300.26992      174.72398      1.1607292      0.84827382   
    179000  -2223.7334      5457.015       3233.2817      123.40525      305.1701       174.8667       1.160622       0.84416223   
    180000  -2253.702       5386.9917      3133.2897      800.42293      301.25422      174.8038       1.1601279      0.85264838   
    181000  -2313.9318      5410.3249      3096.3931     -233.48973      302.55907      174.79229      1.1608931      0.86029284   
    182000  -2181.8172      5409.9025      3228.0853      14.38254       302.53545      174.72757      1.1606895      0.84600842   
    183000  -2274.2239      5266.4287      2992.2048      364.78713      294.51204      174.75369      1.160394       0.86449733   
    184000  -2512.5982      5370.8167      2858.2185      232.62007      300.34968      174.89761      1.1605657      0.87857871   
    185000  -2340.0033      5264.0042      2924.0009     -322.1085       294.37645      174.7854       1.1609649      0.87334556   
    186000  -2356.0533      5356.3164      3000.2631      213.43619      299.53878      174.86388      1.1605807      0.87411772   
    187000  -2418.382       5443.5676      3025.1857      386.07999      304.41809      174.89053      1.1604646      0.87423091   
    188000  -2328.6141      5359.4932      3030.8791     -177.70789      299.71644      174.75523      1.1609367      0.87727902   
    189000  -2395.8824      5332.5204      2936.6381      17.050473      298.20805      174.86204      1.1607297      0.8687338    
    190000  -2324.7264      5288.5436      2963.8172      955.24604      295.74876      174.836        1.1599809      0.86114874   
    191000  -2356.1212      5403.8268      3047.7056      30.986127      302.19568      174.87878      1.160729       0.86146659   
    192000  -2253.7027      5489.5957      3235.893      -43.24847       306.9921       174.77496      1.1607817      0.85378892   
    193000  -2260.049       5433.2496      3173.2006      300.38875      303.84108      174.83355      1.1604951      0.85782495   
    194000  -2254.852       5418.4772      3163.6252      288.47046      303.01497      174.78743      1.1604388      0.84982946   
    195000  -2247.0091      5327.3112      3080.3022     -491.46879      297.91674      174.77102      1.1611472      0.84802709   
    196000  -2208.8863      5353.9762      3145.0898      215.62163      299.40791      174.77608      1.1605318      0.8449146    
    197000  -2269.3783      5471.4229      3202.0446      598.85933      305.97583      174.72672      1.1603566      0.85521984   
    198000  -2199.5907      5471.3484      3271.7577     -200.43242      305.97166      174.75996      1.1608692      0.84922347   
    199000  -2277.6943      5340.1351      3062.4408     -338.49434      298.63388      174.80369      1.1610376      0.86318782   
    200000  -2270.4113      5427.7623      3157.351       642.2916       303.53422      174.77688      1.1602439      0.85814712   
    201000  -2270.4627      5345.0297      3074.567       154.18916      298.9076       174.75062      1.1605512      0.85156347   
    201599  -2238.5117      5363.7721      3125.2604      57.495978      299.95572      174.70329      1.1607379      0.86241314   
Loop time of 547.556 on 36 procs for 100000 steps with 6000 atoms

Performance: 3.156 ns/day, 7.605 hours/ns, 182.630 timesteps/s, 1.096 Matom-step/s
99.2% CPU use with 36 MPI tasks x no OpenMP threads

MPI task timing breakdown:
Section |  min time  |  avg time  |  max time  |%varavg| %total
---------------------------------------------------------------
Pair    | 50.572     | 61.16      | 70.624     |  68.6 | 11.17
Bond    | 0.67903    | 0.73154    | 0.78321    |   3.6 |  0.13
Kspace  | 367.57     | 378.15     | 389.61     |  31.5 | 69.06
Neigh   | 0.29167    | 0.30661    | 0.3177     |   1.2 |  0.06
Comm    | 32.597     | 35.752     | 39.673     |  26.3 |  6.53
Output  | 0.013166   | 0.013484   | 0.023285   |   1.4 |  0.00
Modify  | 32.674     | 52.942     | 70.499     | 219.5 |  9.67
Other   |            | 18.5       |            |       |  3.38

Nlocal:        166.667 ave         186 max         143 min
Histogram: 1 1 2 5 7 5 6 4 3 2
Nghost:        3463.83 ave        3540 max        3380 min
Histogram: 3 1 4 4 4 5 5 3 5 2
Neighs:        41328.9 ave       48217 max       33087 min
Histogram: 2 0 4 5 4 5 7 3 2 4

Total # of neighbors = 1487839
Ave neighs/atom = 247.97317
Ave special neighs/atom = 2
Neighbor list builds = 220
Dangerous builds = 0

timestep    0.25
run         ${Ninptpre}
run         100000
PPPM initialization ...
  using 12-bit tables for long-range coulomb (../kspace.cpp:342)
  G vector (1/distance) = 0.26728084
  grid = 50 50 50
  stencil order = 5
  estimated absolute RMS force accuracy = 0.00042489322
  estimated relative force accuracy = 1.2795533e-06
  using double precision KISS FFT
  3d grid and FFT values/proc = 12500 5000
Generated 1 of 1 mixed pair_coeff terms from arithmetic mixing rule
Per MPI rank memory allocation (min/avg/max) = 8.034 | 8.172 | 8.932 Mbytes
   Step         PotEng         KinEng         TotEng         Press           Temp       c_theta_ave    c_length_ave    v_Density   
    201599  -2238.5109      5363.7721      3125.2613      57.499952      299.95572      174.70329      1.1607379      0.86241314   
    202000  -2260.0236      5530.8273      3270.8037      142.06435      309.29787      174.69987      1.1605695      0.85670886   
    203000  -2265.3291      5474.1026      3208.7735     -4.3795286      306.12569      174.87202      1.1607628      0.85056739   
    204000  -2350.1948      5358.8427      3008.6479     -249.14614      299.68006      174.78411      1.1608959      0.86582906   
    205000  -2210.0729      5405.8078      3195.7349     -492.20317      302.30646      174.74899      1.1610831      0.84401251   
    206000  -2366.5463      5482.2102      3115.6639      103.51149      306.57908      174.83898      1.1606241      0.85977683   
    207000  -2277.9082      5358.9626      3081.0545      357.59661      299.68676      174.79491      1.1604223      0.85637384   
    208000  -2302.5774      5387.5255      3084.9481      781.28052      301.28408      174.8479       1.1600934      0.84727347   
    209000  -2267.9484      5411.7377      3143.7893      547.06237      302.63808      174.82425      1.1602569      0.84836122   
    210000  -2372.437       5428.2865      3055.8495      197.56044      303.56353      174.89266      1.1605921      0.86305797   
    211000  -2448.9572      5370.9501      2921.9929      124.53722      300.35713      174.89919      1.1606686      0.86620362   
    212000  -2262.6812      5328.5161      3065.8349     -265.38534      297.98412      174.7954       1.1608913      0.85490405   
    213000  -2267.0582      5250.9854      2983.9272     -786.02599      293.64841      174.82696      1.1612701      0.83613603   
    214000  -2294.4737      5400.1073      3105.6336     -182.27986      301.98768      174.76099      1.1608873      0.84922594   
    215000  -2227.1584      5390.1037      3162.9452      185.68629      301.42825      174.6956       1.160595       0.84443673   
    216000  -2244.5754      5456.2135      3211.6381      825.59468      305.12528      174.77273      1.1600722      0.83288073   
    217000  -2172.4759      5472.6549      3300.1791      558.33221      306.04473      174.76297      1.1602764      0.83159058   
    218000  -2133.3128      5314.6624      3181.3495      704.47513      297.20938      174.72765      1.1601425      0.8376287    
    219000  -2272.4471      5333.5894      3061.1423      154.36819      298.26783      174.79483      1.1605671      0.84056301   
    220000  -2247.1792      5411.346       3164.1668     -150.66862      302.61618      174.75833      1.1608521      0.8436625    
    221000  -2198.6373      5327.1736      3128.5362     -690.43357      297.90904      174.75426      1.1612955      0.84132557   
    222000  -2246.2833      5430.3241      3184.0407     -341.28167      303.67748      174.81697      1.1609878      0.83638458   
    223000  -2270.5985      5366.7881      3096.1896      95.486343      300.12439      174.79785      1.1606043      0.84207385   
    224000  -2256.2176      5359.9524      3103.7348      271.97771      299.74211      174.80943      1.1605232      0.85064677   
    225000  -2298.6202      5372.1262      3073.506       734.18151      300.42291      174.80245      1.1601567      0.84580565   
    226000  -2236.8389      5302.4606      3065.6217      765.31938      296.52703      174.80713      1.1601143      0.84815663   
    227000  -2330.1714      5275.0518      2944.8804      241.72217      294.99426      174.82701      1.1605663      0.85681263   
    228000  -2326.0557      5399.5139      3073.4582     -171.68554      301.9545       174.79033      1.1609173      0.84908648   
    229000  -2235.9197      5350.9451      3115.0255     -260.37514      299.23841      174.74262      1.1609292      0.84282446   
    230000  -2307.6733      5364.3874      3056.7142     -176.71895      299.99013      174.78486      1.1608947      0.86111965   
    231000  -2293.3516      5363.9648      3070.6132     -152.07376      299.9665       174.77695      1.1607364      0.84788057   
    232000  -2263.2632      5294.1173      3030.8541      176.91385      296.06045      174.71592      1.1605407      0.85048878   
    233000  -2391.1153      5425.9985      3034.8832      313.16152      303.43558      174.79064      1.1605393      0.86933944   
    234000  -2256.8217      5327.2675      3070.4457      631.90211      297.91429      174.747        1.1602373      0.84476623   
    235000  -2171.9333      5274.1815      3102.2482      764.35744      294.94559      174.7101       1.1601404      0.84864069   
    236000  -2328.1047      5346.2395      3018.1347      275.88614      298.97525      174.8691       1.160559       0.84967836   
    237000  -2234.5048      5386.5424      3152.0377      2.6388811      301.2291       174.78035      1.1607147      0.84141234   
    238000  -2267.4881      5304.261       3036.7728     -717.89762      296.62771      174.88165      1.1613078      0.84974061   
    239000  -2247.191       5361.1135      3113.9225     -217.74158      299.80705      174.82932      1.1608632      0.83935431   
    240000  -2232.2232      5301.7686      3069.5454     -93.906034      296.48833      174.91175      1.1607482      0.83423842   
    241000  -2144.0793      5259.231       3115.1517      362.18711      294.10952      174.77056      1.1604368      0.83572473   
    242000  -2177.7854      5446.7798      3268.9944      527.00113      304.59773      174.753        1.160321       0.83666341   
    243000  -2227.3381      5192.3561      2965.018       681.72141      290.3697       174.75267      1.1601716      0.84583989   
    244000  -2328.9324      5393.1219      3064.1896      653.06079      301.59704      174.86061      1.1603038      0.86105596   
    245000  -2389.696       5382.6544      2992.9584      216.13213      301.01167      174.78314      1.1605697      0.86795422   
    246000  -2413.9945      5368.3615      2954.3671     -420.65149      300.21238      174.84829      1.1610424      0.86658957   
    247000  -2331.622       5338.5033      3006.8813     -399.01192      298.54263      174.73454      1.1609587      0.85835193   
    248000  -2262.0832      5369.8546      3107.7714     -206.33475      300.29587      174.82312      1.1608775      0.85218536   
    249000  -2243.6412      5279.4351      3035.7939      35.400908      295.23938      174.79316      1.1607318      0.85585211   
    250000  -2242.2927      5381.2001      3138.9074      494.50538      300.93034      174.68916      1.1604168      0.85962296   
    251000  -2303.5962      5445.9481      3142.3518      697.34232      304.55121      174.7911       1.1602406      0.86486836   
    252000  -2342.3699      5444.822       3102.4521      835.33561      304.48824      174.8522       1.1601025      0.86376108   
    253000  -2206.982       5329.6757      3122.6937      329.9397       298.04897      174.7245       1.1604633      0.86037062   
    254000  -2395.3415      5459.5191      3064.1776     -109.16006      305.31014      174.84644      1.1608805      0.87605261   
    255000  -2430.4035      5400.3579      2969.9544     -315.65925      302.00169      174.85841      1.160998       0.87655197   
    256000  -2275.1538      5340.0226      3064.8688     -222.12835      298.62759      174.84766      1.160885       0.86230193   
    257000  -2345.9268      5369.7771      3023.8503      68.349775      300.29154      174.85742      1.1606653      0.86273414   
    258000  -2214.0336      5395.4763      3181.4427      140.41522      301.7287       174.74318      1.1605951      0.84831146   
    259000  -2280.3381      5381.2353      3100.8971      374.28276      300.93231      174.77592      1.1604291      0.85723114   
    260000  -2308.8674      5391.6073      3082.7399      635.09362      301.51234      174.81146      1.16022        0.85293422   
    261000  -2327.3826      5361.5787      3034.1961      821.91453      299.83306      174.85466      1.1600892      0.86192952   
    262000  -2317.3815      5392.334       3074.9525      274.89357      301.55298      174.83185      1.1604953      0.8579767    
    263000  -2298.6031      5507.4284      3208.8253      108.64279      307.98935      174.76357      1.1606835      0.86453163   
    264000  -2306.6375      5292.9341      2986.2966     -29.716288      295.99428      174.86933      1.1607296      0.86231933   
    265000  -2287.3833      5218.9703      2931.5869     -321.08442      291.85804      174.84292      1.1609477      0.85603804   
    266000  -2212.2742      5359.1818      3146.9077     -83.260701      299.69902      174.78049      1.1607554      0.84384039   
    267000  -2263.4418      5348.5493      3085.1075      285.02873      299.10442      174.83634      1.1604336      0.84889043   
    268000  -2271.7732      5417.4196      3145.6464      391.24546      302.95583      174.81388      1.1604284      0.85924927   
    269000  -2316.0786      5366.9004      3050.8218      1028.7459      300.13066      174.78386      1.1600039      0.85671113   
    270000  -2257.4825      5318.906       3061.4235      267.45427      297.4467       174.89739      1.1605018      0.84977292   
    271000  -2258.9445      5296.5591      3037.6146      96.21787       296.197        174.74192      1.1606395      0.85240885   
    272000  -2315.6077      5324.706       3009.0984     -14.571934      297.77105      174.77065      1.1607466      0.85213302   
    273000  -2282.1376      5421.0456      3138.908      -495.01279      303.1586       174.81962      1.1611237      0.85579119   
    274000  -2303.295       5381.6646      3078.3696     -58.368506      300.95631      174.75794      1.1608871      0.86011798   
    275000  -2333.4472      5352.9176      3019.4704      224.06462      299.34871      174.78706      1.1605506      0.85447817   
    276000  -2361.5402      5467.1355      3105.5953      664.76465      305.73607      174.83298      1.1601994      0.85936168   
    277000  -2363.4726      5394.8699      3031.3972      635.54436      301.69479      174.75459      1.1603441      0.87185807   
    278000  -2439.6053      5430.3823      2990.777       474.91247      303.68073      174.83418      1.1603564      0.86769654   
    279000  -2376.8781      5375.941       2999.0629      372.51184      300.63624      174.84992      1.1604368      0.86672292   
    280000  -2280.6178      5414.7914      3134.1736     -88.448969      302.80885      174.83195      1.1608264      0.84799054   
    281000  -2207.9507      5321.6115      3113.6608     -93.266805      297.598        174.74575      1.1607863      0.84442739   
    282000  -2341.3689      5396.396       3055.0271     -35.506942      301.78014      174.85006      1.1607413      0.84744349   
    283000  -2243.3725      5523.5481      3280.1756     -29.089336      308.8908       174.83155      1.1608359      0.84847633   
    284000  -2208.0096      5350.0482      3142.0385      168.23062      299.18825      174.78649      1.1605618      0.84597181   
    285000  -2284.7887      5396.2169      3111.4282      349.89013      301.77012      174.78874      1.1604016      0.84874164   
    286000  -2296.7684      5416.5135      3119.7452      347.27804      302.90516      174.80158      1.1604729      0.85231958   
    287000  -2347.0058      5422.2714      3075.2656      296.01238      303.22715      174.82455      1.1604947      0.85944148   
    288000  -2372.3954      5372.4621      3000.0668      277.29527      300.44169      174.77435      1.1605156      0.86486168   
    289000  -2390.6506      5408.4146      3017.764      -188.57105      302.45224      174.78819      1.1609762      0.86982623   
    290000  -2286.9908      5393.2867      3106.2959     -295.22737      301.60626      174.77917      1.1609502      0.85638644   
    291000  -2378.0871      5381.5295      3003.4424     -215.38524      300.94876      174.83451      1.1609464      0.8677536    
    292000  -2432.9872      5350.2859      2917.2987     -208.50939      299.20154      174.88548      1.160893       0.86463259   
    293000  -2451.5617      5447.8161      2996.2544      358.22597      304.65568      174.8126       1.1605134      0.8694709    
    294000  -2261.2701      5478.0707      3216.8006      602.87128      306.34759      174.82078      1.1602821      0.85962301   
    295000  -2295.7574      5372.8198      3077.0624      983.97413      300.4617       174.79353      1.1600196      0.85749133   
    296000  -2287.0851      5334.7069      3047.6218      439.60024      298.33033      174.79178      1.1604261      0.85871498   
    297000  -2334.5727      5363.7173      3029.1446      61.203238      299.95266      174.8896       1.1607195      0.86052861   
    298000  -2295.9903      5487.0346      3191.0442     -352.87789      306.84887      174.82881      1.1609997      0.85853125   
    299000  -2305.6102      5342.2431      3036.6329     -234.12806      298.75177      174.77718      1.1609413      0.86846722   
    300000  -2375.349       5392.3961      3017.0471     -19.583986      301.55645      174.81285      1.1607221      0.86785131   
    301000  -2406.6969      5415.2624      3008.5655      128.16126      302.83519      174.79014      1.1606968      0.87878669   
    301599  -2399.1087      5395.4166      2996.3079      342.99963      301.72537      174.81138      1.1605281      0.87791669   
Loop time of 494.058 on 36 procs for 100000 steps with 6000 atoms

Performance: 4.372 ns/day, 5.490 hours/ns, 202.406 timesteps/s, 1.214 Matom-step/s
99.2% CPU use with 36 MPI tasks x no OpenMP threads

MPI task timing breakdown:
Section |  min time  |  avg time  |  max time  |%varavg| %total
---------------------------------------------------------------
Pair    | 51.352     | 61.324     | 68.345     |  52.9 | 12.41
Bond    | 0.6693     | 0.73385    | 0.77921    |   2.7 |  0.15
Kspace  | 323.91     | 332.33     | 343.59     |  25.0 | 67.27
Neigh   | 0.3516     | 0.36702    | 0.37554    |   1.2 |  0.07
Comm    | 33.659     | 36.682     | 39.98      |  24.3 |  7.42
Output  | 0.013503   | 0.013815   | 0.023056   |   1.3 |  0.00
Modify  | 28.732     | 43.308     | 61.237     | 203.3 |  8.77
Other   |            | 19.3       |            |       |  3.91

Nlocal:        166.667 ave         190 max         151 min
Histogram: 6 4 6 3 5 2 3 4 2 1
Nghost:        3549.11 ave        3597 max        3491 min
Histogram: 1 1 2 4 3 14 4 1 3 3
Neighs:        42388.4 ave       51098 max       35433 min
Histogram: 4 2 4 5 8 3 5 2 1 2

Total # of neighbors = 1525983
Ave neighs/atom = 254.3305
Ave special neighs/atom = 2
Neighbor list builds = 269
Dangerous builds = 0

timestep    0.5
run         ${Ninptpre}
run         100000
PPPM initialization ...
  using 12-bit tables for long-range coulomb (../kspace.cpp:342)
  G vector (1/distance) = 0.26760767
  grid = 50 50 50
  stencil order = 5
  estimated absolute RMS force accuracy = 0.00041768967
  estimated relative force accuracy = 1.25786e-06
  using double precision KISS FFT
  3d grid and FFT values/proc = 12500 5000
Generated 1 of 1 mixed pair_coeff terms from arithmetic mixing rule
Per MPI rank memory allocation (min/avg/max) = 8.034 | 8.172 | 8.932 Mbytes
   Step         PotEng         KinEng         TotEng         Press           Temp       c_theta_ave    c_length_ave    v_Density   
    301599  -2399.1085      5395.4166      2996.3081      342.99954      301.72537      174.81138      1.1605281      0.87791669   
    302000  -2345.9263      5301.345       2955.4187     -561.30799      296.46464      174.75299      1.1611629      0.87754121   
    303000  -2258.4942      5402.517       3144.0228     -77.552945      302.12244      174.67142      1.1607909      0.85608685   
    304000  -2369.5573      5380.273       3010.7158      279.32015      300.8785       174.84041      1.1605145      0.8641558    
    305000  -2234.0742      5338.178       3104.1038      834.41285      298.52444      174.78105      1.1600925      0.84772747   
    306000  -2276.4309      5508.2794      3231.8484      100.37057      308.03694      174.82294      1.1606662      0.86120383   
    307000  -2177.734       5414.9138      3237.1797     -1.5915224      302.81569      174.72534      1.1606953      0.84984889   
    308000  -2307.3108      5240.0587      2932.7479     -299.16538      293.03736      174.78726      1.1609624      0.8632194    
    309000  -2146.614       5295.948       3149.334       184.66229      296.16283      174.73708      1.1605955      0.85063899   
    310000  -2308.4672      5332.9052      3024.438       580.55055      298.22957      174.7583       1.1602946      0.8600653    
    311000  -2092.8712      5347.8342      3254.963       587.25849      299.06444      174.71704      1.1603007      0.83875543   
    312000  -2309.6985      5280.7406      2971.0421      125.90937      295.31239      174.74741      1.1606233      0.86263656   
    313000  -2248.3635      5341.8214      3093.4579     -169.72778      298.72818      174.81728      1.1608423      0.84348187   
    314000  -2314.4028      5488.7899      3174.3871      111.48409      306.94703      174.72752      1.1606886      0.86051028   
    315000  -2243.3774      5419.7287      3176.3513      508.59086      303.08496      174.7994       1.1602789      0.8480786    
    316000  -2246.6554      5405.5243      3158.869       414.26689      302.29061      174.7999       1.1604472      0.8491654    
    317000  -2175.3341      5470.4978      3295.1637     -235.50494      305.9241       174.6943       1.1609494      0.83814847   
    318000  -2214.63        5453.8756      3239.2456     -51.959714      304.99454      174.7198       1.1607094      0.83047813   
    319000  -2235.7215      5344.1316      3108.4101      76.08379       298.85738      174.79162      1.1605694      0.84579557   
    320000  -2269.2039      5464.7003      3195.4964      542.25544      305.59989      174.77651      1.1603649      0.8498168    
    321000  -2188.8749      5344.4119      3155.537       828.05798      298.87305      174.73896      1.1600408      0.84308878   
    322000  -2152.6588      5352.2705      3199.6117     -49.885835      299.31253      174.87594      1.1607389      0.84036919   
    323000  -2385.3587      5359.8855      2974.5268     -424.6648       299.73837      174.96255      1.1610519      0.85882659   
    324000  -2339.4932      5366.8543      3027.3611      109.38086      300.12809      174.7862       1.1606454      0.86094099   
    325000  -2156.8577      5375.9184      3219.0607      531.25668      300.63497      174.72074      1.1602195      0.84348294   
    326000  -2200.3073      5397.9423      3197.6351      378.85059      301.86661      174.68504      1.160485       0.84732911   
    327000  -2262.8776      5295.585       3032.7074      110.03074      296.14253      174.80822      1.1606223      0.84376212   
    328000  -2263.1292      5399.4552      3136.326      -125.4171       301.95121      174.80617      1.1609383      0.84982182   
    329000  -2305.4245      5305.4994      3000.0749     -144.2116       296.69697      174.75811      1.1608785      0.85414305   
    330000  -2195.7655      5428.8943      3233.1288      859.70145      303.59752      174.67489      1.1600931      0.83932336   
    331000  -2210.8594      5346.03        3135.1705      575.52878      298.96354      174.76422      1.1602861      0.84193171   
    332000  -2233.1339      5353.5882      3120.4543      157.49514      299.38621      174.85053      1.1606095      0.84074308   
    333000  -2222.0032      5391.2621      3169.2589     -527.60617      301.49303      174.80349      1.1611547      0.84432963   
    334000  -2321.8439      5295.3696      2973.5257      148.16379      296.13048      174.78442      1.1606676      0.84908108   
    335000  -2333.7787      5333.2914      2999.5126      148.78643      298.25117      174.76352      1.160629       0.86143448   
    336000  -2426.5432      5332.907       2906.3638      243.27463      298.22967      174.79663      1.1605862      0.8745866    
    337000  -2253.6675      5382.1415      3128.474       467.21422      300.98299      174.69394      1.1603389      0.85918129   
    338000  -2295.1909      5362.3605      3067.1695      212.94016      299.87678      174.75043      1.160559       0.86093596   
    339000  -2245.3163      5342.4172      3097.101      -331.95462      298.76151      174.67764      1.1609585      0.85000834   
    340000  -2124.344       5423.9826      3299.6386      22.022246      303.32285      174.75636      1.1606858      0.83304362   
    341000  -2175.5681      5434.9941      3259.426       249.46194      303.93864      174.79598      1.1606032      0.84722344   
    342000  -2431.5626      5318.1235      2886.5609      883.04245      297.40294      174.93331      1.1600229      0.86655953   
    343000  -2120.4709      5392.4057      3271.9349      226.54376      301.55699      174.80343      1.1605755      0.83957281   
    344000  -2281.0325      5360.3502      3079.3177     -361.3827       299.76436      174.78967      1.1610441      0.85120054   
    345000  -2318.7659      5289.6818      2970.9159     -171.73196      295.81241      174.8956       1.1608878      0.85130663   
    346000  -2234.7708      5444.5444      3209.7736      260.72526      304.47271      174.79487      1.1605346      0.84715505   
    347000  -2300.9101      5390.5495      3089.6394      650.68621      301.45318      174.82445      1.160318       0.85738727   
    348000  -2296.927       5411.7929      3114.8659      259.05199      302.64117      174.75591      1.1605456      0.8500707    
    349000  -2204.6894      5472.4304      3267.741      -317.88252      306.03217      174.79408      1.160996       0.84647892   
    350000  -2252.7639      5336.548       3083.7841     -278.07987      298.43328      174.74686      1.1609403      0.86162813   
    351000  -2263.5012      5297.9655      3034.4643      149.89347      296.27565      174.78844      1.1606311      0.85412788   
    352000  -2263.0423      5311.5671      3048.5248      377.67837      297.03629      174.81036      1.160467       0.85057659   
    353000  -2301.4991      5458.3151      3156.816       699.00162      305.24281      174.72834      1.1602584      0.85800848   
    354000  -2184.5779      5325.0536      3140.4757      65.425774      297.79048      174.65613      1.1606297      0.84257807   
    355000  -2214.774       5398.8465      3184.0725     -132.54554      301.91717      174.76917      1.1608106      0.83665095   
    356000  -2240.8416      5364.407       3123.5654      87.427432      299.99123      174.81185      1.1607083      0.83456599   
    357000  -2120.4484      5404.1598      3283.7114      500.52235      302.2143       174.75253      1.1603543      0.83222352   
    358000  -2201.239       5355.1439      3153.9049      421.56141      299.47321      174.77433      1.1603577      0.8420687    
    359000  -2140.0259      5354.9721      3214.9462     -272.91323      299.46361      174.83998      1.1609161      0.82935335   
    360000  -2188.9261      5447.3362      3258.4101     -146.8422       304.62884      174.70287      1.1608164      0.83046454   
    361000  -2220.0076      5365.03        3145.0224     -17.922748      300.02607      174.7823       1.1607389      0.84288913   
    362000  -2168.241       5399.5897      3231.3487      638.89494      301.95874      174.78196      1.1601943      0.83294774   
    363000  -2204.3108      5473.7877      3269.4768      302.85855      306.10807      174.80865      1.1605196      0.8346276    
    364000  -2235.1338      5420.7874      3185.6536      192.85524      303.14416      174.7684       1.1606238      0.85246602   
    365000  -2327.3228      5346.0924      3018.7696     -157.00935      298.96703      174.78147      1.1608841      0.86145091   
    366000  -2197.9318      5331.9977      3134.0659     -172.86088      298.17882      174.80521      1.160903       0.85208099   
    367000  -2335.3752      5488.3916      3153.0164      264.49685      306.92476      174.78487      1.1605837      0.86628267   
    368000  -2146.6721      5347.3332      3200.6611      671.57077      299.03642      174.70274      1.1601946      0.8467299    
    369000  -2288.3955      5400.8001      3112.4046      193.62834      302.02642      174.71142      1.1605781      0.86271574   
    370000  -2345.6185      5410.6651      3065.0467     -328.96348      302.5781       174.90179      1.1609655      0.85336082   
    371000  -2335.5847      5417.4122      3081.8276      123.3456       302.95542      174.79615      1.160698       0.86223695   
    372000  -2336.0951      5299.4275      2963.3324      288.69785      296.35741      174.8723       1.1606076      0.86386638   
    373000  -2368.7742      5386.7063      3017.9321      651.38213      301.23826      174.87601      1.1602302      0.86423908   
    374000  -2281.5276      5354.9641      3073.4365      108.39468      299.46316      174.7689       1.1606432      0.85770576   
    375000  -2205.1336      5391.2344      3186.1008     -361.40085      301.49148      174.81347      1.1610498      0.83607062   
    376000  -2235.8694      5353.9645      3118.0951      138.09964      299.40726      174.75157      1.1606825      0.85942008   
    377000  -2314.5688      5358.746       3044.1772      386.98096      299.67465      174.74738      1.1604721      0.86711979   
    378000  -2301.919       5308.3946      3006.4756      395.68692      296.85887      174.77843      1.160461       0.8616631    
    379000  -2367.0955      5306.5685      2939.473       279.76722      296.75675      174.86496      1.1605402      0.86385163   
    380000  -2226.897       5390.7662      3163.8692     -159.64739      301.4653       174.7479       1.1608716      0.85582042   
    381000  -2156.7416      5337.6247      3180.8831     -285.84962      298.49349      174.73726      1.1610356      0.85112212   
    382000  -2160.906       5308.91        3148.0041      285.03082      296.8877       174.67474      1.1604377      0.83952049   
    383000  -2359.3225      5213.3184      2853.9959      523.39839      291.54197      174.89973      1.1603102      0.85724532   
    384000  -2237.9459      5472.2759      3234.33        202.28892      306.02353      174.79996      1.1605961      0.85132792   
    385000  -2290.1861      5327.8783      3037.6922     -467.75426      297.94845      174.72707      1.1610947      0.85943216   
    386000  -2160.1731      5335.3161      3175.143       72.33931       298.36439      174.71145      1.1607302      0.84434056   
    387000  -2246.0955      5315.1932      3069.0977      417.22875      297.23907      174.7421       1.16036        0.84273479   
    388000  -2150.3812      5287.2569      3136.8757      353.89412      295.6768       174.74133      1.1603949      0.84290781   
    389000  -2203.03        5323.1001      3120.0701      239.01675      297.68124      174.77517      1.1605517      0.84028641   
    390000  -2274.2066      5295.5399      3021.3333      14.257583      296.14001      174.79103      1.1607402      0.84884391   
    391000  -2273.714       5332.2262      3058.5122     -240.15965      298.1916       174.85956      1.1609511      0.85373506   
    392000  -2166.6075      5379.6817      3213.0742      302.28255      300.84543      174.75597      1.1604824      0.83516806   
    393000  -2095.8078      5441.386       3345.5782      358.69753      304.29609      174.75226      1.1605002      0.83618139   
    394000  -2154.1389      5397.4758      3243.3369      194.17777      301.84052      174.78874      1.1606042      0.83839209   
    395000  -2154.5334      5437.844       3283.3106      90.002959      304.09801      174.66829      1.1606579      0.83535199   
    396000  -2249.2339      5399.6436      3150.4097     -408.27058      301.96175      174.8113       1.160995       0.84821801   
    397000  -2212.1681      5319.4468      3107.2787      113.92366      297.47694      174.74425      1.1606254      0.83400352   
    398000  -2315.5341      5378.5442      3063.0101      323.53752      300.78182      174.84565      1.1604046      0.83697908   
    399000  -2288.9462      5343.1255      3054.1793      239.12634      298.80111      174.78561      1.160613       0.8520737    
    400000  -2347.8259      5356.4109      3008.585      -9.0728055      299.54406      174.89322      1.160657       0.83984406   
    401000  -2206.7266      5326.9613      3120.2347     -318.10348      297.89717      174.8336       1.16095        0.84301984   
    401599  -2177.9466      5326.7931      3148.8465     -231.93257      297.88776      174.6856       1.1608899      0.84852449   
Loop time of 448.061 on 36 procs for 100000 steps with 6000 atoms

Performance: 9.642 ns/day, 2.489 hours/ns, 223.184 timesteps/s, 1.339 Matom-step/s
99.3% CPU use with 36 MPI tasks x no OpenMP threads

MPI task timing breakdown:
Section |  min time  |  avg time  |  max time  |%varavg| %total
---------------------------------------------------------------
Pair    | 53.619     | 61.386     | 67.122     |  46.4 | 13.70
Bond    | 0.68312    | 0.72583    | 0.76753    |   2.4 |  0.16
Kspace  | 284.64     | 291.75     | 301.41     |  23.1 | 65.11
Neigh   | 0.70942    | 0.73359    | 0.7512     |   1.4 |  0.16
Comm    | 28.992     | 31.625     | 34.181     |  20.9 |  7.06
Output  | 0.012543   | 0.012847   | 0.021683   |   1.3 |  0.00
Modify  | 28.084     | 42.592     | 60.52      | 205.2 |  9.51
Other   |            | 19.24      |            |       |  4.29

Nlocal:        166.667 ave         191 max         127 min
Histogram: 1 1 0 4 3 6 6 7 5 3
Nghost:        3444.83 ave        3498 max        3410 min
Histogram: 3 9 7 1 3 4 2 3 2 2
Neighs:        41318.2 ave       48560 max       28910 min
Histogram: 1 0 2 0 6 6 6 7 6 2

Total # of neighbors = 1487455
Ave neighs/atom = 247.90917
Ave special neighs/atom = 2
Neighbor list builds = 539
Dangerous builds = 0

#-----------------------
# Run (Initialization)
#-----------------------

unfix       runnpt
reset_timestep 0

fix runnpt all npt temp ${simulationTemp} ${simulationTemp} 100 iso ${pressure} ${pressure} 1000
fix runnpt all npt temp 300 ${simulationTemp} 100 iso ${pressure} ${pressure} 1000
fix runnpt all npt temp 300 300 100 iso ${pressure} ${pressure} 1000
fix runnpt all npt temp 300 300 100 iso 157.92 ${pressure} 1000
fix runnpt all npt temp 300 300 100 iso 157.92 157.92 1000

timestep    ${timestep}
timestep    0.5
run         ${Ninpt}
run         1000000
PPPM initialization ...
  using 12-bit tables for long-range coulomb (../kspace.cpp:342)
  G vector (1/distance) = 0.27141494
  grid = 54 54 54
  stencil order = 5
  estimated absolute RMS force accuracy = 0.00030630518
  estimated relative force accuracy = 9.2242896e-07
  using double precision KISS FFT
  3d grid and FFT values/proc = 13125 5832
Generated 1 of 1 mixed pair_coeff terms from arithmetic mixing rule
Per MPI rank memory allocation (min/avg/max) = 8.163 | 8.307 | 9.027 Mbytes
   Step         PotEng         KinEng         TotEng         Press           Temp       c_theta_ave    c_length_ave    v_Density   
         0  -2177.9412      5326.7931      3148.8519     -231.93522      297.88776      174.6856       1.1608899      0.84852449   
      1000  -2246.523       5418.0575      3171.5346      623.54547      302.9915       174.70889      1.1603139      0.85671416   
      2000  -2294.2951      5360.1804      3065.8852      114.60895      299.75486      174.82883      1.1607176      0.86000568   
      3000  -2273.8388      5404.6382      3130.7995      506.82615      302.24106      174.77927      1.1603191      0.85268665   
      4000  -2253.8824      5369.4028      3115.5204     -104.15373      300.27061      174.80736      1.1608182      0.85150727   
      5000  -2315.9645      5371.0376      3055.0731      220.91988      300.36203      174.86669      1.1605827      0.85884744   
      6000  -2282.7426      5322.4616      3039.7191      208.87033      297.64554      174.76841      1.1605671      0.85682657   
      7000  -2337.391       5219.9134      2882.5224      158.26135      291.91078      174.76804      1.1606053      0.86350048   
      8000  -2425.6705      5322.4811      2896.8105      56.287411      297.64663      174.81073      1.160715       0.86821692   
      9000  -2304.1129      5296.0856      2991.9727      319.13694      296.17052      174.79493      1.1604613      0.8583798    
     10000  -2327.2867      5455.5388      3128.2521      49.525733      305.08755      174.78185      1.1606831      0.85318274   
     11000  -2220.2068      5376.9101      3156.7032     -106.7836       300.69043      174.78339      1.1607792      0.85050399   
     12000  -2206.1535      5370.0719      3163.9185      202.05126      300.30803      174.76394      1.1606404      0.85844634   
     13000  -2414.6604      5452.6298      3037.9694     -71.624288      304.92487      174.84926      1.1608718      0.86496826   
     14000  -2254.2328      5381.4436      3127.2109      573.22487      300.94396      174.76479      1.1602787      0.85763714   
     15000  -2236.2502      5288.7179      3052.4677     -132.24695      295.7585       174.73086      1.1607813      0.84896915   
     16000  -2313.524       5372.5456      3059.0217      133.22696      300.44636      174.82996      1.1606665      0.8504843    
     17000  -2300.8777      5295.7073      2994.8295      351.78329      296.14936      174.83583      1.1604283      0.85070208   
     18000  -2360.1047      5379.3881      3019.2834      920.86429      300.82901      174.8149       1.1600736      0.85261184   
     19000  -2308.445       5273.339       2964.8941     -256.88504      294.89848      174.83786      1.1608816      0.84812601   
     20000  -2292.3255      5284.0687      2991.7433      103.00305      295.49851      174.81656      1.1606724      0.85988283   
     21000  -2353.8397      5378.8084      3024.9687      699.13703      300.79659      174.8086       1.1602567      0.86367428   
     22000  -2288.603       5461.9011      3173.2981     -666.83899      305.44335      174.78168      1.1612412      0.85549722   
     23000  -2240.0343      5376.839       3136.8047      467.22832      300.68646      174.70746      1.1603572      0.85650809   
     24000  -2345.7034      5369.5834      3023.88       -155.15594      300.28071      174.85729      1.1608491      0.85488451   
     25000  -2152.8713      5346.8497      3193.9784      558.56756      299.00938      174.7524       1.1602274      0.83550558   
     26000  -2159.5188      5312.2124      3152.6936      246.91898      297.07238      174.7472       1.1605159      0.82408862   
     27000  -2134.5023      5337.2337      3202.7314      833.834        298.47163      174.75916      1.1599926      0.82380862   
     28000  -2178.8692      5361.3023      3182.433       255.05506      299.8176       174.75389      1.1605946      0.83835578   
     29000  -2182.1911      5391.5206      3209.3295      378.05951      301.50749      174.69897      1.1604881      0.84377112   
     30000  -2215.3063      5345.6922      3130.386       304.76899      298.94465      174.80199      1.1605665      0.85560636   
     31000  -2232.7592      5432.92        3200.1608      489.8342       303.82265      174.7892       1.1603949      0.85355499   
     32000  -2278.4559      5418.4904      3140.0345      71.471084      303.01571      174.81283      1.1606894      0.84672928   
     33000  -2176.8492      5378.9154      3202.0662      364.23593      300.80257      174.75956      1.1604099      0.8446879    
     34000  -2197.0647      5370.993       3173.9282     -15.47306       300.35953      174.77289      1.160692       0.84135338   
     35000  -2263.396       5305.601       3042.205       363.08334      296.70265      174.83231      1.1604501      0.85132449   
     36000  -2382.5269      5276.5808      2894.0538      681.28548      295.07976      174.87159      1.1602306      0.86351661   
     37000  -2331.7739      5443.8103      3112.0364     -447.12469      304.43166      174.87192      1.1610671      0.86076014   
     38000  -2175.4198      5300.288       3124.8682      197.4502       296.40553      174.71772      1.1605498      0.84857979   
     39000  -2239.7819      5342.9333      3103.1513     -15.966087      298.79036      174.8356       1.1607008      0.84342626   
     40000  -2273.7273      5305.7073      3031.98       -417.9828       296.70859      174.86172      1.1610303      0.84620836   
     41000  -2216.3251      5308.9072      3092.5821      678.03812      296.88754      174.72767      1.1601817      0.8471063    
     42000  -2332.149       5460.6672      3128.5182      358.57939      305.37434      174.81713      1.1604847      0.85077952   
     43000  -2275.0847      5388.6361      3113.5514      0.0041720845   301.34618      174.83953      1.1606803      0.84194595   
     44000  -2169.177       5274.6509      3105.4739      94.147005      294.97184      174.82373      1.1606026      0.83497943   
     45000  -2127.7764      5389.0082      3261.2319      401.38328      301.36699      174.78736      1.1603697      0.83537203   
     46000  -2228.956       5452.8027      3223.8467     -173.90648      304.93454      174.78429      1.160879       0.84390887   
     47000  -2249.1118      5413.864       3164.7523      865.56883      302.75699      174.77307      1.1600845      0.853221     
     48000  -2234.3322      5384.797       3150.4648      270.87684      301.13149      174.84568      1.160499       0.84613686   
     49000  -2210.8994      5328.0352      3117.1357      241.12949      297.95722      174.7889       1.1604834      0.84018443   
     50000  -2265.0403      5355.6549      3090.6146      87.879476      299.50179      174.80993      1.1607294      0.84606252   
     51000  -2285.682       5232.4754      2946.7935     -88.927421      292.61328      174.78294      1.1607209      0.84467905   
     52000  -2322.1797      5328.3539      3006.1742      561.55253      297.97505      174.81412      1.1602826      0.85288796   
     53000  -2306.927       5345.4992      3038.5723     -391.61163      298.93386      174.77897      1.1610502      0.85946666   
     54000  -2276.7915      5408.4153      3131.6238      455.81394      302.45228      174.82505      1.1603764      0.85252141   
     55000  -2259.5468      5308.1128      3048.566      -260.4695       296.84311      174.82934      1.1609272      0.8436069    
     56000  -2161.4071      5310.3016      3148.8945      570.85235      296.96552      174.74382      1.1602471      0.83350724   
     57000  -2266.0648      5396.2117      3130.1469     -278.42496      301.76983      174.84239      1.1609205      0.8349337    
     58000  -2265.1121      5334.3254      3069.2133      528.96192      298.30899      174.82279      1.1602682      0.84010655   
     59000  -2289.9489      5359.5632      3069.6143     -11.557336      299.72035      174.914        1.1607243      0.84327986   
     60000  -2211.9988      5290.142       3078.1432      83.766563      295.83814      174.76557      1.1606744      0.84837351   
     61000  -2346.8988      5275.1645      2928.2657      406.02614      295.00056      174.84848      1.1604289      0.8590712    
     62000  -2315.2338      5341.8856      3026.6518     -28.471894      298.73178      174.82364      1.1607062      0.8577306    
     63000  -2212.0969      5299.8819      3087.7851      215.42475      296.38282      174.70579      1.1604879      0.8385388    
     64000  -2088.3261      5411.0954      3322.7693     -452.92356      302.60216      174.77423      1.1610968      0.82714062   
     65000  -2042.9312      5310.3237      3267.3925      83.440361      296.96675      174.67827      1.160621       0.8269373    
     66000  -2138.4243      5481.1073      3342.683       243.41548      306.5174       174.73886      1.1604838      0.82718117   
     67000  -2255.8841      5410.0163      3154.1321     -51.708815      302.54181      174.92529      1.1608207      0.83524528   
     68000  -2159.0904      5341.872       3182.7816      602.90817      298.73102      174.88672      1.1602669      0.838495     
     69000  -2207.3702      5314.7366      3107.3664     -376.95658      297.21353      174.75518      1.1610115      0.83903055   
     70000  -2255.128       5253.1605      2998.0325      438.36554      293.77004      174.8183       1.1602645      0.83912202   
     71000  -2288.4449      5280.7197      2992.2748      798.97581      295.31122      174.80783      1.1601232      0.85185528   
[...]
  11424000   167708.91      300.58765     -161.95513      5375.0721     -2375.5614      2999.5107      0.87150396     0              0              0              29.301001      29.301001      195.34001    
  11425000   167708.91      302.24378      355.33236      5404.6869     -2404.7987      2999.8882      0.87150396     0              0              0              29.301001      29.301001      195.34001    
  11426000   167708.91      296.25035     -209.07345      5297.5131     -2297.86        2999.6531      0.87150396     0              0              0              29.301001      29.301001      195.34001    
  11427000   167708.91      301.69006     -41.889411      5394.7852     -2395.3356      2999.4497      0.87150396     0              0              0              29.301001      29.301001      195.34001    
  11428000   167708.91      302.87997      486.28201      5416.0631     -2416.5467      2999.5164      0.87150396     0              0              0              29.301001      29.301001      195.34001    
  11429000   167708.91      303.29163      929.72958      5423.4244     -2423.6333      2999.7911      0.87150396     0              0              0              29.301001      29.301001      195.34001    
  11430000   167708.91      295.32988      236.36062      5281.0533     -2281.1151      2999.9382      0.87150396     0              0              0              29.301001      29.301001      195.34001    
  11431000   167708.91      298.42996     -192.97323      5336.4886     -2336.888       2999.6006      0.87150396     0              0              0              29.301001      29.301001      195.34001    
  11432000   167708.91      303.00349      908.41065      5418.2719     -2418.7187      2999.5533      0.87150396     0              0              0              29.301001      29.301001      195.34001    
  11433000   167708.91      300.07676     -25.601498      5365.9365     -2366.055       2999.8815      0.87150396     0              0              0              29.301001      29.301001      195.34001    
  11434000   167708.91      296.23491     -569.45858      5297.237      -2297.3658      2999.8712      0.87150396     0              0              0              29.301001      29.301001      195.34001    
  11435000   167708.91      301.0111       314.90398      5382.6442     -2383.0959      2999.5483      0.87150396     0              0              0              29.301001      29.301001      195.34001    
  11436000   167708.91      301.34292      107.25434      5388.5778     -2389.1731      2999.4048      0.87150396     0              0              0              29.301001      29.301001      195.34001    
  11437000   167708.91      303.26961     -261.11389      5423.0306     -2423.3254      2999.7052      0.87150396     0              0              0              29.301001      29.301001      195.34001    
  11438000   167708.91      300.7519       146.98955      5378.0092     -2378.1793      2999.8299      0.87150396     0              0              0              29.301001      29.301001      195.34001    
  11439000   167708.91      299.04713      334.38593      5347.5247     -2347.8447      2999.68        0.87150396     0              0              0              29.301001      29.301001      195.34001    
  11440000   167708.91      303.35222      21.240903      5424.5078     -2425.035       2999.4727      0.87150396     0              0              0              29.301001      29.301001      195.34001    
  11441000   167708.91      299.5369      -144.96429      5356.2828     -2356.6869      2999.5959      0.87150396     0              0              0              29.301001      29.301001      195.34001    
  11442000   167708.91      297.58993      25.374858      5321.4673     -2321.6781      2999.7893      0.87150396     0              0              0              29.301001      29.301001      195.34001    
  11443000   167708.91      300.6235       550.54051      5375.7131     -2375.877       2999.8361      0.87150396     0              0              0              29.301001      29.301001      195.34001    
  11444000   167708.91      304.29189      431.89899      5441.3108     -2441.7693      2999.5416      0.87150396     0              0              0              29.301001      29.301001      195.34001    
  11445000   167708.91      300.73762     -359.70618      5377.7538     -2378.0445      2999.7093      0.87150396     0              0              0              29.301001      29.301001      195.34001    
  11446000   167708.91      297.33407      254.15573      5316.892      -2316.9451      2999.9469      0.87150396     0              0              0              29.301001      29.301001      195.34001    
  11447000   167708.91      299.93002      486.55378      5363.3125     -2363.7039      2999.6086      0.87150396     0              0              0              29.301001      29.301001      195.34001    
  11448000   167708.91      299.74079      89.216281      5359.9286     -2360.374       2999.5546      0.87150396     0              0              0              29.301001      29.301001      195.34001    
  11449000   167708.91      302.06585      590.87179      5401.5051     -2401.9031      2999.602       0.87150396     0              0              0              29.301001      29.301001      195.34001    
  11450000   167708.91      299.61799      676.17168      5357.7328     -2357.8952      2999.8377      0.87150396     0              0              0              29.301001      29.301001      195.34001    
  11451000   167708.91      299.63559      256.65568      5358.0474     -2358.4109      2999.6365      0.87150396     0              0              0              29.301001      29.301001      195.34001    
  11452000   167708.91      297.952       -197.46466      5327.9417     -2328.3474      2999.5943      0.87150396     0              0              0              29.301001      29.301001      195.34001    
  11453000   167708.91      300.75512      261.335        5378.0668     -2378.5322      2999.5346      0.87150396     0              0              0              29.301001      29.301001      195.34001    
  11454000   167708.91      300.75537      181.80497      5378.0713     -2378.4323      2999.639       0.87150396     0              0              0              29.301001      29.301001      195.34001    
  11455000   167708.91      301.16944     -176.26163      5385.4756     -2385.7038      2999.7718      0.87150396     0              0              0              29.301001      29.301001      195.34001    
  11456000   167708.91      299.21389      1054.7864      5350.5068     -2350.8677      2999.6391      0.87150396     0              0              0              29.301001      29.301001      195.34001    
  11457000   167708.91      301.63418     -240.64758      5393.7861     -2394.2795      2999.5066      0.87150396     0              0              0              29.301001      29.301001      195.34001    
  11458000   167708.91      301.80154     -23.79228       5396.7787     -2397.2562      2999.5225      0.87150396     0              0              0              29.301001      29.301001      195.34001    
  11459000   167708.91      298.8177       774.64173      5343.422      -2343.553       2999.869       0.87150396     0              0              0              29.301001      29.301001      195.34001    
  11460000   167708.91      302.17529      278.63708      5403.4621     -2403.4977      2999.9645      0.87150396     0              0              0              29.301001      29.301001      195.34001    
  11461000   167708.91      301.83176      186.32732      5397.3192     -2397.725       2999.5941      0.87150396     0              0              0              29.301001      29.301001      195.34001    
  11462000   167708.91      302.36184      406.81175      5406.7979     -2407.1287      2999.6692      0.87150396     0              0              0              29.301001      29.301001      195.34001    
  11463000   167708.91      298.30403      314.64656      5334.2368     -2334.1185      3000.1183      0.87150396     0              0              0              29.301001      29.301001      195.34001    
  11464000   167708.91      302.03893      374.58368      5401.0237     -2401.0123      3000.0114      0.87150396     0              0              0              29.301001      29.301001      195.34001    
  11465000   167708.91      301.59468      291.87259      5393.0798     -2393.3984      2999.6814      0.87150396     0              0              0              29.301001      29.301001      195.34001    
  11466000   167708.91      300.08948     -98.820447      5366.1639     -2366.3065      2999.8574      0.87150396     0              0              0              29.301001      29.301001      195.34001    
  11467000   167708.91      299.02277      337.69988      5347.0891     -2347.1324      2999.9567      0.87150396     0              0              0              29.301001      29.301001      195.34001    
  11468000   167708.91      300.20447      690.4078       5368.2201     -2368.2035      3000.0167      0.87150396     0              0              0              29.301001      29.301001      195.34001    
  11469000   167708.91      298.68335      442.11212      5341.0196     -2341.3201      2999.6996      0.87150396     0              0              0              29.301001      29.301001      195.34001    
  11470000   167708.91      301.85869      387.82713      5397.8007     -2398.0625      2999.7382      0.87150396     0              0              0              29.301001      29.301001      195.34001    
  11471000   167708.91      302.10618      393.22371      5402.2262     -2402.4053      2999.8209      0.87150396     0              0              0              29.301001      29.301001      195.34001    
  11472000   167708.91      301.39595      387.11465      5389.5261     -2389.9043      2999.6218      0.87150396     0              0              0              29.301001      29.301001      195.34001    
  11473000   167708.91      301.09871      7.6561428      5384.2108     -2384.3056      2999.9052      0.87150396     0              0              0              29.301001      29.301001      195.34001    
  11474000   167708.91      296.38552      702.24961      5299.9301     -2299.8622      3000.0679      0.87150396     0              0              0              29.301001      29.301001      195.34001    
  11475000   167708.91      301.09875      725.31769      5384.2115     -2384.2909      2999.9206      0.87150396     0              0              0              29.301001      29.301001      195.34001    
  11476000   167708.91      302.03105     -445.60679      5400.8828     -2401.2294      2999.6534      0.87150396     0              0              0              29.301001      29.301001      195.34001    
  11477000   167708.91      299.78125     -279.95554      5360.6521     -2360.7383      2999.9138      0.87150396     0              0              0              29.301001      29.301001      195.34001    
  11478000   167708.91      300.32678      27.897349      5370.4072     -2370.3042      3000.103       0.87150396     0              0              0              29.301001      29.301001      195.34001    
  11479000   167708.91      300.30868     -100.81646      5370.0836     -2370.0461      3000.0375      0.87150396     0              0              0              29.301001      29.301001      195.34001    
  11480000   167708.91      298.13372      94.447528      5331.1913     -2331.2149      2999.9764      0.87150396     0              0              0              29.301001      29.301001      195.34001    
  11481000   167708.91      299.71638      254.36378      5359.4922     -2359.5736      2999.9186      0.87150396     0              0              0              29.301001      29.301001      195.34001    
  11482000   167708.91      299.53394     -279.06988      5356.2298     -2356.04        3000.1898      0.87150396     0              0              0              29.301001      29.301001      195.34001    
  11483000   167708.91      303.1282      -231.17215      5420.5019     -2420.647       2999.8549      0.87150396     0              0              0              29.301001      29.301001      195.34001    
  11484000   167708.91      297.22853      106.5603       5315.0047     -2315.0891      2999.9156      0.87150396     0              0              0              29.301001      29.301001      195.34001    
  11485000   167708.91      296.04678     -347.90607      5293.8728     -2293.7262      3000.1466      0.87150396     0              0              0              29.301001      29.301001      195.34001    
  11486000   167708.91      298.04455      242.75746      5329.5968     -2329.7405      2999.8563      0.87150396     0              0              0              29.301001      29.301001      195.34001    
  11487000   167708.91      300.79443      365.31708      5378.7698     -2379.1216      2999.6482      0.87150396     0              0              0              29.301001      29.301001      195.34001    
  11488000   167708.91      297.72995     -340.80595      5323.971      -2323.9992      2999.9718      0.87150396     0              0              0              29.301001      29.301001      195.34001    
  11489000   167708.91      295.90392      27.050489      5291.3183     -2291.0192      3000.2991      0.87150396     0              0              0              29.301001      29.301001      195.34001    
  11490000   167708.91      296.62874      519.22486      5304.2793     -2304.0437      3000.2356      0.87150396     0              0              0              29.301001      29.301001      195.34001    
  11491000   167708.91      300.74424      282.86176      5377.8723     -2378.0929      2999.7794      0.87150396     0              0              0              29.301001      29.301001      195.34001    
  11492000   167708.91      302.23741     -67.154264      5404.573      -2404.8613      2999.7117      0.87150396     0              0              0              29.301001      29.301001      195.34001    
  11493000   167708.91      303.38582     -564.3934       5425.1087     -2425.112       2999.9967      0.87150396     0              0              0              29.301001      29.301001      195.34001    
  11494000   167708.91      298.97691     -123.52821      5346.2691     -2346.2         3000.0691      0.87150396     0              0              0              29.301001      29.301001      195.34001    
  11495000   167708.91      299.13709      629.6257       5349.1334     -2349.093       3000.0404      0.87150396     0              0              0              29.301001      29.301001      195.34001    
  11496000   167708.91      302.35313      148.28867      5406.6423     -2406.9155      2999.7268      0.87150396     0              0              0              29.301001      29.301001      195.34001    
  11497000   167708.91      298.87181      325.38496      5344.3897     -2344.7072      2999.6825      0.87150396     0              0              0              29.301001      29.301001      195.34001    
  11498000   167708.91      298.50191      187.01165      5337.7752     -2337.6363      3000.1389      0.87150396     0              0              0              29.301001      29.301001      195.34001    
  11499000   167708.91      298.77324     -30.535465      5342.6271     -2342.5988      3000.0282      0.87150396     0              0              0              29.301001      29.301001      195.34001    
  11500000   167708.91      301.14539      213.56909      5385.0456     -2385.5187      2999.5269      0.87150396     0              0              0              29.301001      29.301001      195.34001    
  11501000   167708.91      300.03427      509.10368      5365.1766     -2365.3927      2999.784       0.87150396     0              0              0              29.301001      29.301001      195.34001    
  11502000   167708.91      297.05324      451.50814      5311.8703     -2311.8682      3000.0021      0.87150396     0              0              0              29.301001      29.301001      195.34001    
  11503000   167708.91      300.45991     -198.1055       5372.7879     -2372.9877      2999.8001      0.87150396     0              0              0              29.301001      29.301001      195.34001    
  11504000   167708.91      300.50572      540.06705      5373.6071     -2374.0627      2999.5444      0.87150396     0              0              0              29.301001      29.301001      195.34001    
  11505000   167708.91      302.43364      929.01739      5408.0819     -2408.4259      2999.656       0.87150396     0              0              0              29.301001      29.301001      195.34001    
  11506000   167708.91      299.93141      92.502108      5363.3373     -2363.4016      2999.9357      0.87150396     0              0              0              29.301001      29.301001      195.34001    
  11507000   167708.91      301.16305      523.29467      5385.3614     -2385.7021      2999.6593      0.87150396     0              0              0              29.301001      29.301001      195.34001    
  11508000   167708.91      299.52909      544.02116      5356.143      -2356.3505      2999.7926      0.87150396     0              0              0              29.301001      29.301001      195.34001    
  11509000   167708.91      300.7837       463.05803      5378.5779     -2378.8132      2999.7648      0.87150396     0              0              0              29.301001      29.301001      195.34001    
  11510000   167708.91      299.69134      257.66997      5359.0444     -2359.3313      2999.7131      0.87150396     0              0              0              29.301001      29.301001      195.34001    
Loop time of 1437.18 on 36 procs for 500000 steps with 6000 atoms

Performance: 15.029 ns/day, 1.597 hours/ns, 347.903 timesteps/s, 2.087 Matom-step/s
99.3% CPU use with 36 MPI tasks x no OpenMP threads

MPI task timing breakdown:
Section |  min time  |  avg time  |  max time  |%varavg| %total
---------------------------------------------------------------
Pair    | 291.54     | 313.35     | 336.51     |  59.6 | 21.80
Bond    | 2.5878     | 2.729      | 2.9166     |   5.5 |  0.19
Kspace  | 942.01     | 964.43     | 987.75     |  35.3 | 67.11
Neigh   | 3.4346     | 3.526      | 3.6341     |   2.9 |  0.25
Comm    | 134.06     | 142.07     | 147.66     |  30.1 |  9.89
Output  | 0.026425   | 0.028569   | 0.030856   |   0.7 |  0.00
Modify  | 0.84318    | 0.90278    | 0.96709    |   3.0 |  0.06
Other   |            | 10.14      |            |       |  0.71

Nlocal:        166.667 ave         183 max         147 min
Histogram: 2 0 3 10 1 3 7 2 5 3
Nghost:        4290.81 ave        4445 max        4145 min
Histogram: 3 4 6 2 3 4 4 2 7 1
Neighs:        42123.8 ave       47438 max       36205 min
Histogram: 2 1 3 5 9 3 4 2 3 4

Total # of neighbors = 1516456
Ave neighs/atom = 252.74267
Ave special neighs/atom = 2
Neighbor list builds = 2500
Dangerous builds = 0

restart         1000000 restart_${NAME}.1 restart_${NAME}.2
restart         1000000 restart_CO2.1 restart_${NAME}.2
restart         1000000 restart_CO2.1 restart_CO2.2

write_data      ${NAME}_cuboid.data
write_data      CO2_cuboid.data
System init for write_data ...
PPPM initialization ...
  using 12-bit tables for long-range coulomb (../kspace.cpp:342)
  G vector (1/distance) = 0.26786272
  grid = 32 32 128
  stencil order = 5
  estimated absolute RMS force accuracy = 0.00040746971
  estimated relative force accuracy = 1.2270829e-06
  using double precision KISS FFT
  3d grid and FFT values/proc = 14079 4096
Generated 1 of 1 mixed pair_coeff terms from arithmetic mixing rule

quit
