LAMMPS data file via write_data, version 2 Aug 2023, timestep = 11510000, units = real

6000 atoms
2 atom types
4000 bonds
1 bond types
2000 angles
1 angle types

0 29.3010012399836 xlo xhi
0 29.3010012399836 ylo yhi
0 195.340008266557 zlo zhi

Masses

1 15.9994
2 12.0107

Pair Coeffs # lj/cut/coul/long

1 0.156989 3.05
2 0.0536545 2.8

Bond Coeffs # harmonic

1 1028.27 1.16

Angle Coeffs # harmonic

1 55.96 180

Atoms # full

569 190 2 0.7 6.340116393008763 3.471688654284011 0.16559476997803885 -1 4 -1
495 165 1 -0.35 5.3589941901923694 3.839944575205105 6.682552951024321 -1 3 5
494 165 2 0.7 4.385705190469364 4.386880039544053 7.046642242630573 -1 3 5
493 165 1 -0.35 3.4937548905451066 4.925443469463658 7.5101222979100815 -1 3 5
568 190 1 -0.35 5.432228151455842 4.163126291251808 0.3536614675951012 -1 4 -1
5622 1874 1 -0.35 8.68965308333188 9.69904308169523 3.2158039709727744 0 0 1
4108 1370 1 -0.35 6.218160005359174 0.7343525152982971 6.43336198066127 -3 3 2
371 124 2 0.7 0.43577520115574975 8.242418744071548 4.573089752221409 3 2 7
372 124 1 -0.35 1.4953865737873586 7.839510834761879 4.439666027192018 3 2 7
4125 1375 1 -0.35 1.8011895733715582 2.293115090598497 5.711909747178318 0 -2 2
5469 1823 1 -0.35 6.6466516307018155 4.954601616547972 3.542930782051889 -3 -4 4
515 172 2 0.7 3.0164142636050575 4.002041613499894 2.9111661409945406 4 2 -2
514 172 1 -0.35 3.4311218724531694 4.450488208443727 3.872314005980323 4 2 -2
516 172 1 -0.35 2.653532312316971 3.547652578332568 1.8845022830644882 4 2 -2
5468 1823 2 0.7 7.20814555342217 3.9684350801921466 3.7146262023385863 -3 -4 4
5467 1823 1 -0.35 7.832573396444615 3.0052461857124384 3.8319424631619783 -3 -4 4
5872 1958 1 -0.35 0.5962422940012446 7.642121441747727 7.648342802659559 2 4 -4
2273 758 2 0.7 7.77406165365424 4.249151299998328 47.88383279468894 4 -4 2
4124 1375 2 0.7 2.3004861433213017 2.03232237424293 6.734173117218809 0 -2 2
4799 1600 2 0.7 3.7086060979282482 0.6847907622225798 2.7059581980174667 1 5 0
4798 1600 1 -0.35 2.6485384439367823 0.28740668023950766 3.040356822828662 1 5 0
4123 1375 1 -0.35 2.874681055120825 1.709997419475026 7.6741201897380344 0 -2 2
5391 1797 1 -0.35 0.9374731555034475 0.1688314840473452 12.404774378919432 -1 1 1
3867 1289 1 -0.35 9.365033135485158 8.405855339848014 29.296300197202918 3 0 0
4800 1600 1 -0.35 4.7953136223003545 1.0821852196653765 2.4325514770782704 1 5 0
1522 508 1 -0.35 8.10114011051835 7.172166484232057 8.331882041488095 -1 0 0
1523 508 2 0.7 7.121667547984125 7.216017411173848 7.697813125931414 -1 0 0
2577 859 1 -0.35 1.4569186156981482 7.249632881742016 10.543350139075859 0 0 -3
5931 1977 1 -0.35 0.15744092386302455 1.8406094854281283 33.51673628188479 0 2 -2
2278 760 1 -0.35 3.5596707062633346 0.14556822007154538 11.701483061339022 -4 4 0
1254 418 1 -0.35 5.129522241086817 5.963689507595195 10.080173427121371 1 -6 -1
1253 418 2 0.7 4.541363324487875 5.4648980660807105 10.970343921780985 1 -6 -1
1252 418 1 -0.35 3.8709238693706185 4.858646128670632 11.70517494996271 1 -6 -1
3866 1289 2 0.7 9.512889954673431 7.250043162609536 29.20354257911705 3 0 0
3624 1208 1 -0.35 9.160499839308432 7.667341579027719 18.326429101678293 3 4 0
3508 1170 1 -0.35 0.04284085793494796 5.900721565010501 29.45104067608861 6 -1 0
3137 1046 2 0.7 4.67335070974803 5.431463571578286 14.999391495228878 1 -2 3
4746 1582 1 -0.35 7.619964732792003 2.3588717421284064 11.015805831857199 -1 -1 1
1352 451 2 0.7 9.549876204118542 7.398351344205437 37.425635311281845 4 2 -2
4745 1582 2 0.7 8.622549451522973 1.8963772484733006 11.40460828739886 -1 -1 1
4744 1582 1 -0.35 9.531309211661652 1.3464543641539695 11.81877264864423 -1 -1 1
5320 1774 1 -0.35 5.640568959615409 1.7435285572030597 13.575001474659908 0 1 -2
1524 508 1 -0.35 6.200865025378599 7.202147977400167 6.993274529836454 -1 0 0
5321 1774 2 0.7 4.595908085390818 1.8054377420319385 14.017954503729884 0 1 -2
3136 1046 1 -0.35 3.529597386035057 5.4793101043030665 15.186103250595918 1 -2 3
4348 1450 1 -0.35 8.7373997688954 1.538808381837539 19.211096906321423 3 3 -2
3138 1046 1 -0.35 5.790563261807696 5.4469757886556325 14.718708010740388 1 -2 3
5389 1797 1 -0.35 0.5204161144731534 1.7515192718237758 14.06694807926205 -1 1 1
2899 967 1 -0.35 1.0870605282812227 7.562797057367835 36.682162965354685 0 5 1
205 69 1 -0.35 7.202894285792713 9.315801119084137 46.045918421728096 0 -2 3
487 163 1 -0.35 8.134300933862162 1.6581501375822651 42.46123650656232 1 -6 2
1880 627 2 0.7 1.6628847135380365 0.5295604930486036 17.010730991424744 1 0 2
4212 1404 1 -0.35 4.090116101993663 9.244654792134885 0.48949652747369626 7 1 -4
3569 1190 2 0.7 8.639049917225302 8.778511234291331 41.884365181190965 7 -3 3
651 217 1 -0.35 8.007135192228123 7.973795662293833 21.328601426489396 -5 7 3
3623 1208 2 0.7 8.16820832855534 7.0743732832523625 18.23725280347743 3 4 0
5766 1922 1 -0.35 9.417598671803407 5.0015882554803435 9.196367311433441 -2 2 1
1434 478 1 -0.35 7.825675092476069 0.8601769029564793 25.346504641417035 5 0 -1
5862 1954 1 -0.35 6.894123657124801 4.096463756414712 22.257296380126427 -2 3 2
5861 1954 2 0.7 6.312431778488983 4.778558827493468 21.558986157012157 -2 3 2
5860 1954 1 -0.35 5.727639645356952 5.448909889637701 20.850564096124405 -2 3 2
3556 1186 1 -0.35 4.0285408329341905 6.966087471782528 18.291151347275363 -2 -3 -1
3622 1208 1 -0.35 7.228878971745231 6.417453943249226 18.199526262928543 3 4 0
3965 1322 2 0.7 7.350594771236646 3.529633052138227 16.959960186599073 2 5 -1
3966 1322 1 -0.35 6.268891129983142 3.3367542298932023 16.61866706285977 2 5 -1
2267 756 2 0.7 0.020530314039961573 1.3489369793726869 19.663071481467732 1 5 -5
3358 1120 1 -0.35 2.640024738922021 4.17379771217798 19.994269123836165 -1 5 -3
4663 1555 1 -0.35 0.14835472408797484 7.897408068632602 22.84967133820084 4 2 -3
3359 1120 2 0.7 1.8611103189063325 5.024369448225497 19.935188686792674 -1 5 -3
3360 1120 1 -0.35 1.0868910967460605 5.874231993539559 19.805849063254396 -1 5 -3
3964 1322 1 -0.35 8.429881289740296 3.7100414337897187 17.28316520032675 2 5 -1
3557 1186 2 0.7 4.183983663288362 7.472681668128453 19.301444529590327 -2 -3 -1
1433 478 2 0.7 8.461670561678073 0.6346079662666916 24.355450320877043 5 0 -1
3558 1186 1 -0.35 4.206888336391961 8.019199537316839 20.32945877919178 -2 -3 -1
2266 756 1 -0.35 0.0470598571430842 2.380401531028087 20.159894690948907 1 5 -5
5644 1882 1 -0.35 2.0628667657550586 5.1847199505875725 23.362187843184078 -1 4 3
5645 1882 2 0.7 2.589905411508619 6.252670797172995 23.4175445786894 -1 4 3
1432 478 1 -0.35 9.092791495726837 0.33660771199170675 23.441403212836168 5 0 -1
1881 627 1 -0.35 0.9639918520467888 1.476330088294306 16.945109045228506 1 0 2
5712 1904 1 -0.35 9.522585271251653 2.5121770019093006 6.900493646090243 -1 1 3
4109 1370 2 0.7 7.197211554231073 0.08067759071279221 6.508560278492012 -3 3 2
5390 1797 2 0.7 0.7562454625347339 0.9117310465861402 13.264368914075993 -1 1 1
3510 1170 1 -0.35 2.380431009534517 5.66670646354661 29.833488997135596 6 -1 0
3313 1105 1 -0.35 1.2835383155104327 9.234232315442465 43.61673287077809 0 3 1
1099 367 1 -0.35 3.4416000204479613 8.885105141281956 29.33524675764217 -1 0 -3
3509 1170 2 0.7 1.2152777709035112 5.814863701963252 29.643862007090185 6 -1 0
5646 1882 1 -0.35 3.1590420917696593 7.236686163349944 23.542974792120134 -1 4 3
1426 476 1 -0.35 2.191952859967598 9.166350582123215 26.501982832999705 1 -1 -5
752 251 2 0.7 1.4511601590650776 0.09473085625092707 29.15110981267581 4 5 -1
753 251 1 -0.35 0.8895635796639269 0.10083776246263922 28.13736665207343 4 5 -1
2685 895 1 -0.35 6.252363778265263 5.351883162766264 24.80224421237787 2 -3 2
2683 895 1 -0.35 6.357798530338937 4.003361528813367 26.652370481514396 2 -3 2
1100 367 2 0.7 4.289984913398821 8.22286890287634 28.855356018430864 -1 0 -3
650 217 2 0.7 8.419882246296545 8.988506518281216 21.72729383597405 -5 7 3
5929 1977 1 -0.35 0.15716168455608692 2.8127512478978662 31.385396826365593 0 2 -2
5930 1977 2 0.7 0.15653728996048 2.3323148730491132 32.43593694941205 0 2 -2
751 251 1 -0.35 1.9704238448739448 0.11234553074533414 30.18102090634446 4 5 -1
2422 808 1 -0.35 4.861792465104035 0.8189210376520665 29.57360917447867 -3 -4 -5
2684 895 2 0.7 6.307168162959064 4.706648208935181 25.73999529346917 2 -3 2
1427 476 2 0.7 1.2798883386894626 9.49655669817992 25.84308302627059 1 -1 -5
1101 367 1 -0.35 5.16030742004848 7.558623862978957 28.428891413624683 -1 0 -3
2423 808 2 0.7 4.248234593065366 1.8088833301985463 29.44710015021452 -3 -4 -5
2424 808 1 -0.35 3.5594674763993672 2.6972605589027694 29.242782312077793 -3 -4 -5
2459 820 2 0.7 6.9931700753923085 8.867265116363765 31.097943862911205 -5 -3 1
2023 675 1 -0.35 8.37029314211404 9.22263318192947 26.109332206236214 2 4 1
2460 820 1 -0.35 7.560686057333139 8.262178072495823 31.90688270405834 -5 -3 1
2900 967 2 0.7 1.1365174590770326 7.717859258204278 35.53894985911077 0 5 1
3486 1162 1 -0.35 4.609152390094934 7.055865761932506 35.37637668428126 6 1 1
2576 859 2 0.7 0.4011086792030357 6.738662326549965 10.523896708107863 0 0 -3
1120 374 1 -0.35 8.809155658716744 3.228748419837225 38.14819556831817 -3 -1 4
2901 967 1 -0.35 1.233495532502178 8.01866942455621 34.42357774498272 0 5 1
5361 1787 1 -0.35 6.627568654061021 6.533828831605443 40.34295346585394 -1 2 -2
3485 1162 2 0.7 4.308012942299949 7.805409821219793 36.24608856300268 6 1 1
5360 1787 2 0.7 7.408456852746768 5.678138819086474 40.40809697508158 -1 2 -2
1351 451 1 -0.35 9.411488405505342 8.519555636027224 37.686976326900755 4 2 -2
3568 1190 1 -0.35 9.458327508795405 8.526745385007555 41.111107904308604 7 -3 3
525 175 1 -0.35 4.558515350954959 1.1343708301048492 37.445925716138206 2 1 -1
524 175 2 0.7 4.734050109182158 1.963508536111354 38.20914738602995 2 1 -1
523 175 1 -0.35 4.96348974486647 2.8056667486742892 39.00005347209971 2 1 -1
3484 1162 1 -0.35 3.9276305866273544 8.573093137195183 37.036580412198944 6 1 1
2274 758 1 -0.35 6.727626285107463 4.627961631850753 47.932371964902174 4 -4 2
3694 1232 1 -0.35 1.4372337964439292 0.09187777143820243 37.28090269017438 -3 5 2
5763 1921 1 -0.35 3.0158513501385427 0.5709410847137354 45.466652016911226 -2 0 -2
3293 1098 2 0.7 5.8607988076766295 1.060751607757945 45.38896741923822 4 4 3
3684 1228 1 -0.35 6.367000921656979 9.753972411891361 34.933391155083726 -2 1 -1
3985 1329 1 -0.35 4.815285005428235 1.058586851918683 41.88859852121869 5 -1 5
2272 758 1 -0.35 8.888372481690464 3.9773420646603355 47.82070770369207 4 -4 2
488 163 2 0.7 7.277115094444538 2.426001575651681 42.441396949333694 1 -6 2
3865 1289 1 -0.35 9.682007048541882 6.108281420670676 29.150228598914108 3 0 0
3987 1329 1 -0.35 2.4920066986955853 0.9272517218217556 41.895076508834414 5 -1 5
2120 707 2 0.7 2.091040880629631 4.585261013071157 42.95568133678579 -2 0 -2
3986 1329 2 0.7 3.6455636307931885 0.9708181090926868 41.83114370551926 5 -1 5
3822 1274 1 -0.35 3.6207448044226394 7.870281984833043 43.04416040810048 1 4 -5
5393 1798 2 0.7 1.4759111643607534 5.428642222903638 0.15590943897934093 -1 4 2
3821 1274 2 0.7 3.4511331676100174 7.671416032542997 41.92603194198018 1 4 -5
5359 1787 1 -0.35 8.219801068916345 4.8688360102195105 40.5314583926143 -1 2 -2
3820 1274 1 -0.35 3.2813306328591567 7.396948158619455 40.79841649991256 1 4 -5
2121 707 1 -0.35 2.6380253357701413 3.5834987390273247 42.79233633383536 -2 0 -2
5152 1718 1 -0.35 8.552388706863375 7.7964174813521705 0.2785766481968804 2 4 0
3292 1098 1 -0.35 5.727930273208753 2.115630378838122 45.817110860606995 4 4 3
4733 1578 2 0.7 3.3362703655277737 7.803392061902024 46.19335203912221 -2 -1 3
3314 1105 2 0.7 0.48344808852645726 8.740995916691361 44.32068992075934 0 3 1
3570 1190 1 -0.35 7.843040957167227 8.841210160193496 42.72558469163557 7 -3 3
4732 1578 1 -0.35 3.09300403878427 8.952941863255788 46.33968145067257 -2 -1 3
2966 989 2 0.7 6.72702100437929 6.283790243470664 44.87799197470229 0 1 2
2119 707 1 -0.35 1.5437503920305584 5.623557214773055 43.078237290354636 -2 0 -2
489 163 1 -0.35 6.444579980461407 3.2470453715502843 42.40851112536358 1 -6 2
2268 756 1 -0.35 0.009035896726055533 0.33134838798357596 19.161301391140153 1 5 -5
4734 1578 1 -0.35 3.581519040197253 6.672173072541593 46.06155362705916 -2 -1 3
2965 989 1 -0.35 5.8139406667316775 6.170515321662775 44.179045230876916 0 1 2
2967 989 1 -0.35 7.770639767942911 6.2807389501132755 45.43879831252485 0 1 2
5322 1774 1 -0.35 3.6372899303587793 1.8503578745339706 14.633070576453312 0 1 -2
5621 1874 2 0.7 7.712006578072523 9.534374312291337 2.593889718388671 0 0 1
5620 1874 1 -0.35 6.806761113482223 9.309973962225156 1.8736212630321756 0 0 1
2458 820 1 -0.35 6.40977187329469 9.524905739885183 30.348534926439907 -5 -3 1
1775 592 2 0.7 9.484458470863373 0.6036534406003409 40.40771656753619 4 2 2
5394 1798 1 -0.35 2.381595551662374 6.0145915597620325 0.5570247245151474 -1 4 2
4349 1450 2 0.7 9.752349003811533 1.5135730051626175 18.651617858407203 3 3 -2
4225 1409 1 -0.35 0.5860826038504848 8.734985760307676 48.80293606299446 -1 -1 0
2814 938 1 -0.35 6.216596853229944 6.295322314311151 52.71696372781087 -4 -2 1
3926 1309 2 0.7 9.498431664257017 6.166968811039478 52.240893066175474 3 0 0
2813 938 2 0.7 5.102885990385021 5.959821772235033 52.953966965309846 -4 -2 1
2812 938 1 -0.35 3.989399077789333 5.7508022972278985 53.12211654062336 -4 -2 1
5837 1946 2 0.7 1.9124805614339497 2.546362790553281 54.68219813019412 -3 3 0
1982 661 2 0.7 3.4017414069777474 8.17629482282329 50.675526306960506 -3 -3 0
2864 955 2 0.7 0.27000033715976784 4.311508098237573 84.80336477347758 0 3 -4
1983 661 1 -0.35 4.1006706671572255 7.606376268033113 49.92189182834472 -3 -3 0
5836 1946 1 -0.35 3.018575175850442 2.66522029292156 54.99656999027968 -3 3 0
1981 661 1 -0.35 2.7664340133148517 8.710795558680367 51.49844640890435 -3 -3 0
2861 954 2 0.7 5.129504635000497 8.120453595494821 56.71588698436676 0 0 0
2937 979 1 -0.35 0.8580913037169701 3.3280648717526233 57.76195936051832 2 0 -1
5662 1888 1 -0.35 7.268519127076528 9.36260324194951 54.23861939587111 4 -1 4
5659 1887 1 -0.35 0.8873326471186577 7.119717282374847 95.41180746829254 2 1 2
2505 835 1 -0.35 4.498668981151613 1.0377661623738332 51.44537646455304 0 -3 4
4065 1355 1 -0.35 0.32953458738278785 4.106195696231121 50.78127202371362 -4 2 -1
2860 954 1 -0.35 4.227197892180799 8.004071865043795 56.0066946987358 0 0 0
2550 850 1 -0.35 6.061934251182061 3.974916193368164 55.079683648122646 2 -2 0
3126 1042 1 -0.35 8.51264791482754 1.6409166380552078 89.19483224150984 -1 -2 -2
2548 850 1 -0.35 5.787675467971017 1.7101374192011947 54.60442910334247 2 -2 0
1608 536 1 -0.35 6.74446456582116 0.24118010503942955 76.86123028605724 2 -5 1
4073 1358 2 0.7 8.73379044112868 1.4557592933072971 51.35717246081691 -3 -1 -2
4074 1358 1 -0.35 8.00090834577371 2.021224430788342 50.63228285398762 -3 -1 -2
4072 1358 1 -0.35 9.422700560011227 0.982625894882461 52.17000721827984 -3 -1 -2
2549 850 2 0.7 5.938489846437467 2.824901837054966 54.88607866693335 2 -2 0
3925 1309 1 -0.35 9.089764398419351 5.544772211600497 53.11005067293841 3 0 0
105 35 1 -0.35 6.143894197168159 1.0778099842267101 81.96706522818737 3 -3 -2
5981 1994 2 0.7 7.550936329195774 5.0404838964445515 57.52284967272455 3 4 -2
4765 1589 1 -0.35 3.7958446658582448 4.327667959786256 50.775555578102995 2 -1 0
1455 485 1 -0.35 2.3829964011457676 8.338016998908186 61.17701408895112 -2 -3 0
2862 954 1 -0.35 6.062880483147821 8.192795236241153 57.43140416857348 0 0 0
4679 1560 2 0.7 0.5710719950890571 9.589571403445579 58.33660860934601 6 1 1
5502 1834 1 -0.35 9.154792666354554 4.605645739649617 63.160650620369516 0 -1 -2
2935 979 1 -0.35 2.439242440467243 5.001757004500515 58.13202252388508 2 0 -1
869 290 2 0.7 5.201036593674236 5.394574703746271 60.95857406305578 2 0 -4
5752 1918 1 -0.35 4.553305856359951 1.4637095120943782 63.031112313175605 0 1 4
870 290 1 -0.35 5.178696535792511 4.241465671898923 61.16583907887875 2 0 -4
868 290 1 -0.35 5.281866098167435 6.531677358883416 60.815058637184386 2 0 -4
5753 1918 2 0.7 3.748562538620109 2.25684583215759 63.24329403655855 0 1 4
5754 1918 1 -0.35 2.9553438622005275 3.121024153479252 63.356642657438215 0 1 4
4979 1660 2 0.7 3.0076784119116113 0.39120044484290223 58.24862153038879 3 -1 1
2936 979 2 0.7 1.6567022096396022 4.1504690590468964 57.97906017458227 2 0 -1
2375 792 2 0.7 0.32270406700086623 0.470025706573187 67.81845335790125 2 5 -1
4980 1660 1 -0.35 2.661205176167411 0.6084481596833116 57.1571692284207 3 -1 1
2020 674 1 -0.35 0.19342993350555746 2.5177482626862697 63.5591964142612 1 0 1
4978 1660 1 -0.35 3.348546441690342 0.025745228799618984 59.282053673258694 3 -1 1
3532 1178 1 -0.35 7.508933473205045 1.9060467393393972 58.71742899980962 -4 1 -2
5500 1834 1 -0.35 9.154663404890307 4.30767102848321 60.91335357829013 0 -1 -2
1453 485 1 -0.35 2.998096476225053 7.880340600076735 58.9737383942544 -2 -3 0
3533 1178 2 0.7 7.8350087092569005 1.6798371501082012 59.79297461136039 -4 1 -2
567 189 1 -0.35 1.4642184962194769 3.829235976331612 95.34590377080066 0 2 -4
5699 1900 2 0.7 9.205479394661756 6.448886795270927 96.16569677264202 -2 -1 6
5980 1994 1 -0.35 6.64667892117928 4.611055285445035 58.129126808103535 3 4 -2
1454 485 2 0.7 2.7427188632823873 8.15483524623356 60.08710678204912 -2 -3 0
3534 1178 1 -0.35 8.2063444045282 1.5121863898621095 60.85838691761979 -4 1 -2
5501 1834 2 0.7 9.129233765150303 4.366503142555141 62.04480509220885 0 -1 -2
4226 1409 2 0.7 0.07968521642274559 9.230666593920398 49.738302054315554 -1 -1 0
4160 1387 2 0.7 4.6114314288592775 1.2820123601124886 91.87909316187336 1 -3 5
2504 835 2 0.7 5.280333398734919 0.21667566281158673 51.64902719233956 0 -3 4
4717 1573 1 -0.35 1.5118557593805773 8.467646559331579 67.09309419470287 1 -2 2
4718 1573 2 0.7 0.5677945784104226 8.074872040979335 67.6247566185826 1 -2 2
1339 447 1 -0.35 7.552135111080231 8.892420748150737 67.06454419067755 2 6 -1
2714 905 2 0.7 1.3570681633428208 5.197313744450196 70.12403164802772 2 1 3
2713 905 1 -0.35 0.49476070515875326 4.435188585492026 69.93727158107086 2 1 3
1238 413 2 0.7 6.634377167102221 3.8317939308156643 68.17707472846132 1 2 -4
1340 447 2 0.7 8.115418592909226 8.615555104707644 66.09018447651714 2 6 -1
1237 413 1 -0.35 6.354720710259896 4.930945530340651 68.09568863065302 1 2 -4
1239 413 1 -0.35 6.987319657515597 2.7281023886191558 68.17659160664492 1 2 -4
4761 1587 1 -0.35 5.353574123015495 6.732257264922645 71.22191610889728 4 3 -2
4760 1587 2 0.7 5.010382287314117 7.834679591476231 71.39864833159835 4 3 -2
5551 1851 1 -0.35 4.908109344636567 8.36436073590383 65.98296868475032 -3 6 0
5552 1851 2 0.7 4.867400017933144 8.334401308506122 67.1630504426612 -3 6 0
5553 1851 1 -0.35 4.792855125137662 8.27538292822056 68.29743711812573 -3 6 0
4759 1587 1 -0.35 4.66841688219433 8.931786871743137 71.48308504237974 4 3 -2
2715 905 1 -0.35 2.2041349001099584 5.9921664462250535 70.17549120115137 2 1 3
5661 1887 1 -0.35 0.48603033176402666 6.1605933342229955 97.52476549860802 2 1 2
4387 1463 1 -0.35 2.4570496509539166 2.489074398979995 72.2345225634176 1 -4 0
4388 1463 2 0.7 3.0511701679504206 3.381503884773773 72.70216440435576 1 -4 0
5519 1840 2 0.7 7.996401455241687 4.610911770267904 72.24589243339214 6 3 1
5518 1840 1 -0.35 8.483516440220074 5.654690196941 72.39310104495956 6 3 1
4389 1463 1 -0.35 3.5327527423865153 4.243720123063157 73.31518034658522 1 -4 0
1179 393 1 -0.35 7.040934960495117 7.812160311667963 74.59658180474614 -4 3 -1
1178 393 2 0.7 7.831269001965868 7.666073633718263 75.43097908002046 -4 3 -1
5520 1840 1 -0.35 7.429001112301366 3.6225128400218685 72.31079216953859 6 3 1
287 96 2 0.7 9.081683391046669 1.3562562561603873 65.33535903011435 -1 1 -3
3475 1159 1 -0.35 1.6670172962427214 6.286029674582735 76.23148256452076 1 3 -5
1939 647 1 -0.35 6.40710388897316 5.306728342065786 77.73311632092279 -2 0 4
4766 1589 2 0.7 3.9610686888509 3.642641920664734 49.88298245490155 2 -1 0
2070 690 1 -0.35 3.4015286371527242 0.9527144647278711 77.36065852034181 3 -4 3
3714 1238 1 -0.35 0.1696275299648775 0.16709022609843013 96.96367048950611 1 1 3
2376 792 1 -0.35 0.8991198719429953 1.4647694175495918 68.11591669922022 2 5 -1
560 187 2 0.7 0.27182021612176527 3.104011577543401 80.67605814497712 -1 6 3
1941 647 1 -0.35 5.974488219924199 3.159082841072026 77.18478836408143 -2 0 4
1940 647 2 0.7 6.17585773694935 4.250576781885818 77.45424925841168 -2 0 4
1606 536 1 -0.35 8.50666384833457 1.7228476065042935 77.15868529053228 2 -5 1
3476 1159 2 0.7 2.057861970452142 7.357001100959936 76.33904986022999 1 3 -5
3477 1159 1 -0.35 2.491472745687538 8.442203537421209 76.45100830485094 1 3 -5
559 187 1 -0.35 0.6146377562732176 3.938980862812698 81.39988017496243 -1 6 3
1607 536 2 0.7 7.608364053479988 0.986448465579514 76.99161987171917 2 -5 1
288 96 1 -0.35 8.111779142626553 0.7883309057041203 65.59432661926061 -1 1 -3
5982 1994 1 -0.35 8.464134005724988 5.600727373388745 57.062271107912686 3 4 -2
2466 822 1 -0.35 9.376040438453165 4.883927587946877 79.47097002664775 0 -2 -2
1985 662 2 0.7 9.463209159575923 9.676051636181587 58.86581360793795 0 -3 -2
5268 1756 1 -0.35 0.838197351356072 1.6696840869445047 75.50023533918795 -4 0 3
103 35 1 -0.35 7.977198587210529 1.597409993577935 83.33405854562568 3 -3 -2
3728 1243 2 0.7 8.278471729966384 2.5399341527305443 95.27743605675728 2 3 1
543 181 1 -0.35 3.990842611574037 7.654581144203713 89.31721518351502 2 4 -2
68 23 2 0.7 0.09422108047812472 0.724598163657387 91.14675997110056 0 -6 0
3365 1122 2 0.7 1.7938798871324795 0.0686591757383495 84.6260386362486 -2 1 0
2863 955 1 -0.35 1.0353035508226243 3.4484823609240056 84.58094640402294 0 3 -4
999 333 1 -0.35 5.815112541285924 8.647059646801726 85.2395811487235 2 -1 4
5838 1946 1 -0.35 0.7705728139039077 2.4836850262227443 54.4150005156793 -3 3 0
1574 525 2 0.7 4.413982362674603 3.074209451900841 84.55710551645498 2 -2 -1
4848 1616 1 -0.35 8.612702061775614 7.839544222707753 82.64757890246676 3 -3 0
788 263 2 0.7 8.961625163166307 5.98224743220298 86.7671353566208 -3 1 -1
787 263 1 -0.35 8.999362764196656 7.040486909612858 86.27647426580104 -3 1 -1
789 263 1 -0.35 9.088613149725004 5.005108204202477 87.30265486826096 -3 1 -1
4847 1616 2 0.7 9.760911738794697 7.937724825452639 82.57967810538486 3 -3 0
1575 525 1 -0.35 4.4514746713804225 3.8174603472639435 83.65070840460427 2 -2 -1
1573 525 1 -0.35 4.297841016837176 2.381361565205073 85.51335372761064 2 -2 -1
998 333 2 0.7 5.826316951335814 7.508936436912099 85.47013773502779 2 -1 4
3287 1096 2 0.7 1.7885492331974926 9.003514007441927 87.69825751495698 -5 0 -1
104 35 2 0.7 7.045963600646851 1.3999720006290473 82.6416029100525 3 -3 -2
3366 1122 1 -0.35 2.502049291323238 0.27496406999139666 83.69745959390355 -2 1 0
997 333 1 -0.35 5.736681621424184 6.387897928864733 85.80260247761471 2 -1 4
3288 1096 1 -0.35 1.9652798002612786 8.436774950187298 86.67905073281133 -5 0 -1
3415 1139 1 -0.35 7.7578180329563216 7.895084748915512 89.47706617231403 -4 0 2
2775 925 1 -0.35 2.645395056424317 2.399120837376797 88.0792867682157 -1 -2 -1
3125 1042 2 0.7 9.614210537671658 1.5359389924961595 88.91540705600846 -1 -2 -2
2774 925 2 0.7 3.101828868634765 1.4197392024937314 88.49308270624667 -1 -2 -1
2773 925 1 -0.35 3.4656306598972253 0.35845557548116636 88.79567033797062 -1 -2 -1
4678 1560 1 -0.35 0.012958235465204507 8.969226848997996 57.529061834222254 6 1 1
5660 1887 2 0.7 0.7273591175037687 6.61801072502239 96.45177714217377 2 1 2
4902 1634 1 -0.35 0.37528608413299097 9.709859556738756 92.36660727077683 -2 2 -1
565 189 1 -0.35 1.170699332428611 1.645579918148 94.74769817786928 0 2 -4
566 189 2 0.7 1.295889247794526 2.765643766891723 94.9835174829321 0 2 -4
3940 1314 1 -0.35 4.086317576590095 6.509370204827375 94.93632845428105 -2 2 -3
964 322 1 -0.35 3.4857213881282396 4.060033014753478 93.28145244961644 -3 0 -4
3416 1139 2 0.7 8.731008788452163 7.936577512835357 90.0590506170497 -4 0 2
4161 1387 1 -0.35 3.4817074340887277 1.5294771091241137 91.68761697820017 1 -3 5
4159 1387 1 -0.35 5.721527562510214 0.934284659725635 92.00209421315036 1 -3 5
3941 1314 2 0.7 4.316195893743863 7.581809812813945 95.28515422034552 -2 2 -3
5412 1804 1 -0.35 5.471860838055722 4.085535576877665 90.57222292245073 1 0 2
542 181 2 0.7 4.638754982320345 7.5869174341802355 90.29730389203498 2 4 -2
541 181 1 -0.35 5.38906625411025 7.523211432600356 91.18194955225164 2 4 -2
966 322 1 -0.35 2.8964637439300662 5.816304060518721 91.85104001979522 -3 0 -4
3942 1314 1 -0.35 4.4855417725489835 8.672264785401495 95.67187076831621 -2 2 -3
3286 1096 1 -0.35 1.540173672238154 9.514235935186754 88.68610138412063 -5 0 -1
1341 447 1 -0.35 8.554063526978169 8.251504122141037 65.12388584520247 2 6 -1
5411 1804 2 0.7 6.603737464113903 4.351571938386249 90.65156514132788 1 0 2
3727 1243 1 -0.35 8.157023859549904 3.4082178870475053 94.50784401446738 2 3 1
1177 393 1 -0.35 8.578866174257707 7.444139949599279 76.30453877791241 -4 3 -1
3729 1243 1 -0.35 8.390965993818353 1.5839264054439146 95.9394407878079 2 3 1
5410 1804 1 -0.35 7.732290122842195 4.6425175586139655 90.6712396102439 1 0 2
5700 1900 1 -0.35 8.39329842325808 7.301554410800678 96.12826397747355 -2 -1 6
965 322 2 0.7 3.172178107418708 4.94526945608757 92.57461385969499 -3 0 -4
2149 717 1 -0.35 6.661067180576592 9.587688282436803 61.35797583443607 1 -3 2
2839 947 1 -0.35 7.816494189342173 9.535107340508194 92.31210153959398 -1 3 1
462 154 1 -0.35 3.713838116722967 0.03215741424228469 73.88131024623634 1 -4 4
4767 1589 1 -0.35 4.218156659208717 2.8948542255827037 49.03850985607234 2 -1 0
3195 1065 1 -0.35 8.51843640082633 7.370659820461162 101.33135922705065 -3 -2 6
3194 1065 2 0.7 7.535685012347101 7.00647174419786 101.85669745866792 -3 -2 6
3193 1065 1 -0.35 6.5425401909166245 6.499108307046231 102.19697005351925 -3 -2 6
4994 1665 2 0.7 5.154918367230769 5.266390183597773 104.30308227353112 -1 1 1
4995 1665 1 -0.35 6.203844335083278 4.769304217382892 104.24746251852754 -1 1 1
4993 1665 1 -0.35 4.106559798025713 5.724171064091279 104.40965329226901 -1 1 1
4346 1449 2 0.7 6.293073466590821 2.8730612500625394 97.9355483877083 -1 3 3
4347 1449 1 -0.35 6.1676337118838545 1.7299910260085574 97.86711852061524 -1 3 3
5995 1999 1 -0.35 0.578212655317426 5.865566324023259 119.3309612194885 -2 3 -5
1113 371 1 -0.35 0.9476150662565122 4.812472751454215 105.32821130579875 0 -4 6
1112 371 2 0.7 0.7278368099128306 5.124613134086157 104.24723992278228 0 -4 6
2327 776 2 0.7 2.881568210613184 8.448378164852398 105.57977743337574 -2 2 3
1259 420 2 0.7 9.4948186853679 2.148021019224025 128.3683732206372 -3 -10 1
289 97 1 -0.35 2.4000742617721977 2.882072995313213 97.97664795662992 -2 3 -3
4016 1339 2 0.7 0.17238778131042448 9.014554178633324 144.60461066321432 2 3 -2
2897 966 2 0.7 2.9321676727320565 7.475522877272614 100.43116199821768 -3 -1 -2
5996 1999 2 0.7 0.4970170428819092 6.728632446310997 120.06245777303693 -2 3 -5
2326 776 1 -0.35 1.877703361328215 7.927295771563623 105.56887604161481 -2 2 3
2896 966 1 -0.35 2.4610340865408005 6.427726259410302 100.25575625620013 -3 -1 -2
1111 371 1 -0.35 0.3749973208957768 5.375493806692352 103.16074515487426 0 -4 6
656 219 2 0.7 9.053108268634906 3.064603517966789 101.4061174461258 2 1 0
657 219 1 -0.35 7.923237429436689 2.8774267043418886 101.40191006773928 2 1 0
2898 966 1 -0.35 3.5128646003549084 8.5070360086146 100.5049516725243 -3 -1 -2
4858 1620 1 -0.35 2.2944149197045562 6.699339165711632 145.86982021604578 6 -1 -1
291 97 1 -0.35 3.1011143570371056 3.0397544419828955 100.19727719836334 -2 3 -3
290 97 2 0.7 2.716228361282627 3.015912753038652 99.08245871882912 -2 3 -3
4345 1449 1 -0.35 6.433119070910332 3.9970354192224735 97.89188587586295 -1 3 3
4908 1636 1 -0.35 8.226961727990593 9.4701284227056 99.52460768307891 -6 0 6
5315 1772 2 0.7 9.624788081803425 1.2515787237761102 137.13785581391718 1 1 1
1328 443 2 0.7 7.76403876146387 3.4325575556889847 143.78141539132938 2 3 1
4026 1342 1 -0.35 8.576099885218616 9.713966983859972 106.14587128233536 0 -2 4
212 71 2 0.7 9.268733318216707 5.090123819507041 110.28103515096505 1 1 1
5316 1772 1 -0.35 9.10584341622525 0.5476647845146669 136.38974165998485 1 1 1
990 330 1 -0.35 4.107204811629014 5.865943211150173 107.43364211106339 -1 -5 2
988 330 1 -0.35 3.641197406191183 3.7772093938102027 106.62655274155317 -1 -5 2
989 330 2 0.7 3.8990477994429726 4.835990617157927 107.00522896564792 -1 -5 2
2632 878 1 -0.35 6.263798508171724 4.510883002845248 110.88380389145162 -4 0 3
2633 878 2 0.7 6.097004666772886 3.785331318078653 111.76222136610268 -4 0 3
4025 1342 2 0.7 8.163162966081842 8.61107327732693 106.31770808340241 0 -2 4
2634 878 1 -0.35 6.087966930144653 2.9664180641749676 112.57461716683288 -4 0 3
4024 1342 1 -0.35 7.708844437277163 7.512346774135655 106.29018340513821 0 -2 4
5824 1942 1 -0.35 3.4371284750181386 9.244006594699778 108.52835918919054 -2 -3 -2
5825 1942 2 0.7 3.085655507924632 8.43511557793124 109.31311517312157 -2 -3 -2
3981 1327 1 -0.35 6.009935354562506 0.6341215016185312 109.09177334758928 -2 2 1
4602 1534 1 -0.35 3.515623967004914 3.7562445760342302 110.0396933367498 -3 -4 2
1688 563 2 0.7 2.08282985355048 1.2814837854169288 107.00947994171288 3 2 0
511 171 1 -0.35 0.7360786632418755 1.6431048053719015 109.80411076331855 3 -1 -1
1687 563 1 -0.35 2.895779056379808 1.2933644156548028 107.81868906045716 3 2 0
4601 1534 2 0.7 2.4234916599303875 4.164861122081316 110.05121861431495 -3 -4 2
4600 1534 1 -0.35 1.3736709034710677 4.65390964600132 110.14471885351425 -3 -4 2
555 185 1 -0.35 1.6393361925667675 5.305236276966141 113.29763386121392 1 0 -2
5121 1707 1 -0.35 5.353924502210912 1.1131851726687785 117.20416649128917 -2 -1 -1
211 71 1 -0.35 8.869588752633362 5.549161450090093 109.30909738399231 1 1 1
1689 563 1 -0.35 1.301854163890056 1.267089977036637 106.17233228104973 3 2 0
5826 1942 1 -0.35 2.815680532599539 7.645769109443411 110.10730431123699 -2 -3 -2
4630 1544 1 -0.35 2.4385508556514868 1.9608784721952577 113.29115296366155 -6 1 4