LAMMPS data file via write_data, version 2 Aug 2023, timestep = 10000000, units = real

6000 atoms
2 atom types
4000 bonds
1 bond types
2000 angles
1 angle types

-0.07510072036574655 55.04012372035101 xlo xhi
-0.07510072036574655 55.04012372035101 ylo yhi
-0.07510072036574655 55.04012372035101 zlo zhi

Masses

1 15.9994
2 12.0107

Pair Coeffs # lj/cut/coul/long

1 0.156989 3.05
2 0.0536545 2.8

Bond Coeffs # harmonic

1 1028.27 1.16

Angle Coeffs # harmonic

1 55.96 180

Atoms # full

2385 795 1 -0.35 2.9378017425874035 2.552608238614921 13.390901846352072 3 1 -1
4494 1498 1 -0.35 5.944955920822167 5.2588422392172225 3.9031359226058275 -3 1 3
4492 1498 1 -0.35 3.8453034522824607 6.279851067803967 3.6373388266949767 -3 1 3
4493 1498 2 0.7 4.8924083897854445 5.760757527773147 3.7241535248469817 -3 1 3
2297 766 2 0.7 3.5236471655555994 3.0722320176697964 6.856220929236984 2 1 -2
2298 766 1 -0.35 3.644810852166744 4.082914698087761 6.3276990374133 2 1 -2
2296 766 1 -0.35 3.443514678881124 2.0221082606034493 7.2760254356691245 2 1 -2
637 213 1 -0.35 0.4683531641631593 0.0899596235468465 4.710529465814184 -3 7 2
411 137 1 -0.35 1.6257409035144055 7.529823550653005 0.02792452044891522 1 5 2
5132 1711 2 0.7 5.898537627988943 1.8236231209701683 3.06410867558466 -4 4 0
5133 1711 1 -0.35 5.760731454697005 1.4295868756255705 4.1367771139012754 -4 4 0
2080 694 1 -0.35 2.6218142966078086 1.393227965883476 2.357796442269591 2 0 2
3507 1169 1 -0.35 6.610090211020815 7.229190229023243 11.754086031208708 0 -5 -2
2081 694 2 0.7 2.6244350351570156 1.8310272455831016 3.4297600133266966 2 0 2
1869 623 1 -0.35 1.6785171085374504 1.2087877094479946 11.32822547056757 -5 1 -1
379 127 1 -0.35 7.0425641603050835 0.8334287219904983 8.499930834830545 1 4 4
3505 1169 1 -0.35 5.268519203850259 5.374513221911533 11.2274037896765 0 -5 -2
3506 1169 2 0.7 5.909064316188973 6.319260940430435 11.492440072317807 0 -5 -2
2082 694 1 -0.35 2.5156241401521737 2.3039119087611963 4.463353025202631 2 0 2
5131 1711 1 -0.35 6.04471702972164 2.1394409719467107 1.9322429159023886 -4 4 0
380 127 2 0.7 7.5943915257679855 1.2115491012924313 7.529347842500797 1 4 4
381 127 1 -0.35 8.165708764714335 1.6585618865453189 6.612683356622684 1 4 4
1868 623 2 0.7 1.2933472366853562 0.1612152278884387 11.57488112075498 -5 1 -1
410 137 2 0.7 1.8905747546540115 6.446167430487432 0.34491586674645974 1 5 2
2383 795 1 -0.35 4.590335716564948 2.700967475690473 11.759187210668099 3 1 -1
3598 1200 1 -0.35 6.005993995474087 7.392011730280531 8.18835743915119 1 -4 -1
2384 795 2 0.7 3.777415093687833 2.6080669489699804 12.581723341915586 3 1 -1
1296 432 1 -0.35 1.9063010058263223 6.237947421190447 9.414217331267738 1 -2 2
409 137 1 -0.35 2.1947474567651963 5.388634551052239 0.7609953714344478 1 5 2
4875 1625 1 -0.35 8.302606172657944 2.668520214964396 10.447882243919366 -1 1 2
1294 432 1 -0.35 2.6869819479170753 6.559299964056959 11.569549433482083 1 -2 2
1295 432 2 0.7 2.3696966700294824 6.42618282435344 10.451100537210358 1 -2 2
3600 1200 1 -0.35 7.495252279840177 8.956649777870336 7.331584232800308 1 -4 -1
3599 1200 2 0.7 6.7733190727202235 8.130515878822752 7.706271352466235 1 -4 -1
1062 354 1 -0.35 5.707128725510125 8.598618637240056 5.114867276884381 -3 -3 -1
4874 1625 2 0.7 7.982553615650481 2.497229185966244 11.565465207865216 -1 1 2
4873 1625 1 -0.35 7.6832803928679985 2.373605189335216 12.667870950214821 -1 1 2
5271 1757 1 -0.35 8.313345276305212 6.710659649336355 4.865315491971971 -3 -3 0
3251 1084 2 0.7 3.1668024989226997 8.868610507574724 8.074363954958542 0 0 -2
3252 1084 1 -0.35 3.242514451486368 8.45465557206524 7.02163790072526 0 0 -2
2487 829 1 -0.35 12.662259892866365 -0.0468159497117894 1.6446707483992529 3 4 3
2486 829 2 0.7 13.066363629627158 0.2760865590669052 0.6393988514745603 3 4 3
5269 1757 1 -0.35 10.067969578900797 6.021659580260876 6.187353735659015 -3 -3 0
5270 1757 2 0.7 9.20714857605969 6.413785984092181 5.507614503986286 -3 -3 0
5837 1946 2 0.7 10.02958444445041 0.05299272344332759 5.09111220534997 -4 1 0
73 25 1 -0.35 10.76915335373028 4.831045010353928 0.8461233542479906 0 -1 4
246 82 1 -0.35 10.285143914844925 6.133508991612493 9.60565007222263 -2 3 0
3356 1119 2 0.7 12.799625724616822 1.193439748989068 11.778868253397256 -3 3 -1
3357 1119 1 -0.35 12.8078986536813 2.094880554134549 11.007443903536023 -3 3 -1
3210 1070 1 -0.35 17.983675369311513 2.071693760562208 4.827667309176539 -1 0 -3
5630 1877 2 0.7 11.959198372140078 6.803205897120285 3.7238645332725087 3 3 3
245 82 2 0.7 11.342108483518468 5.620337289447999 9.587345167135355 -2 3 0
244 82 1 -0.35 12.393845391903687 5.139477284443246 9.493275261926005 -2 3 0
1466 489 2 0.7 10.320275603328131 3.4774220623656418 3.4517027705187027 2 -1 -4
3208 1070 1 -0.35 16.56244245124498 3.3591812190173576 6.108548208481568 -1 0 -3
3658 1220 1 -0.35 11.631131480825818 3.8723022670123464 6.913986157723334 3 -1 -2
3659 1220 2 0.7 11.22378657623927 3.166955985611383 7.715795759908997 3 -1 -2
3660 1220 1 -0.35 10.777891633695516 2.447838096511553 8.52333725778871 3 -1 -2
4859 1620 2 0.7 16.103138849432252 3.0030675091672476 10.675746130855767 6 -1 -1
4860 1620 1 -0.35 15.918275339458578 4.101765361248956 10.317287831127949 6 -1 -1
4858 1620 1 -0.35 16.36759941162689 1.9191911929112602 10.957802518767037 6 -1 -1
3209 1070 2 0.7 17.284827382786474 2.656579635385964 5.495930451905317 -1 0 -3
1465 489 1 -0.35 9.382237338441916 4.153835227516756 3.629985750822528 2 -1 -4
2221 741 1 -0.35 17.4777056171712 7.094311919984578 6.049494671295831 -2 2 0
5631 1877 1 -0.35 12.27520288688378 5.828222864530669 4.269282965040927 3 3 3
1467 489 1 -0.35 11.247322081221704 2.8998446306358234 3.199949854072189 2 -1 -4
5629 1877 1 -0.35 11.675327812328035 7.743308704515888 3.165272840718029 3 3 3
2222 741 2 0.7 17.050377092658405 7.462178648863973 5.059452265939362 -2 2 0
998 333 2 0.7 13.832364343462823 0.47727021584056606 8.267160546251187 0 0 5
3661 1221 1 -0.35 14.181233177634088 8.166092371808073 12.725793700908413 -3 -2 0
3662 1221 2 0.7 13.964518133184578 8.974980209911275 11.898393005815658 -3 -2 0
5041 1681 1 -0.35 11.251675033898078 4.999505760781033 12.176598488980998 3 0 0
2223 741 1 -0.35 16.585445095854627 7.825147012134647 4.030049161251665 -2 2 0
997 333 1 -0.35 14.214031169803176 1.3955558989152752 7.705700026608972 0 0 5
3355 1119 1 -0.35 12.839372608689468 0.27890681903820513 12.51363350162565 -3 3 -1
5836 1946 1 -0.35 9.482515596547538 0.3515814556185117 4.1481267431225 -4 1 0
1385 462 2 0.7 14.664012550409913 5.313228156103937 13.646139808068288 3 -3 1
74 25 2 0.7 11.690749705251026 4.31708325493049 0.29726083490980254 0 -1 4
1386 462 1 -0.35 15.833503683168312 5.341006677179309 13.541009324248673 3 -3 1
5758 1920 1 -0.35 17.842311576545445 7.039486681926152 10.148889515884747 0 -1 3
5042 1681 2 0.7 10.825519925130695 5.314685458013742 13.201621013199413 3 0 0
5555 1852 2 0.7 18.091487693984543 0.34414571197272953 9.341269032389786 -3 -2 2
2178 726 1 -0.35 3.409256589710365 17.611115736513145 5.474247009649163 1 1 0
1338 446 1 -0.35 2.903859649960833 13.99575704816644 12.309723594729828 -3 1 -2
4793 1598 2 0.7 5.916893588022959 18.236323211127953 1.8503488329233018 0 0 -2
2955 985 1 -0.35 2.613505617887271 12.296324912762147 6.003269276141537 2 -2 -2
3158 1053 2 0.7 7.840465200572099 13.985771108138776 11.489861696610877 1 3 -3
3157 1053 1 -0.35 7.651658094432543 15.088395546872388 11.791108187955436 1 3 -3
1337 446 2 0.7 3.9582929461480845 13.684513464585475 12.611005521761175 -3 1 -2
291 97 1 -0.35 6.451559938197664 9.95283707559865 13.045825317557377 1 4 -2
1662 554 1 -0.35 0.8699944402359548 17.653829085523345 7.572932483187568 -1 0 -2
3716 1239 2 0.7 0.5412141994387704 11.790271148267852 1.4971785024070432 5 -2 -2
290 97 2 0.7 5.4611914133473 10.32003642229443 12.615280268805693 1 4 -2
1341 447 1 -0.35 5.429201268805228 11.664753118066336 7.0980653953863895 0 5 -1
1060 354 1 -0.35 6.654195956887101 10.551302921014708 4.3551767506401875 -3 -3 -1
3425 1142 2 0.7 6.131070834137893 13.408864126448027 4.062512619238532 0 2 -3
1061 354 2 0.7 6.248410143376431 9.571987859612491 4.770524197310921 -3 -3 -1
2954 985 2 0.7 2.939816209179872 13.399752975465173 6.130976293787629 2 -2 -2
2953 985 1 -0.35 3.274786906770122 14.526534037224552 6.278086786578324 2 -2 -2
4149 1383 1 -0.35 2.8291499547880057 16.601169432657716 11.174057257644744 -2 1 3
3426 1142 1 -0.35 7.106026308045561 13.823412328714987 4.491598640422094 0 2 -3
3717 1239 1 -0.35 0.9338443822576294 12.857350304131291 1.5165207533478373 5 -2 -2
5017 1673 1 -0.35 7.926657474954094 16.71216032116807 8.300984563705658 1 -1 5
2177 726 2 0.7 3.9912003215563887 17.259154980671333 6.42920021080562 1 1 0
2176 726 1 -0.35 4.537498740517824 16.971123469487004 7.4402635754080375 1 1 0
1336 446 1 -0.35 5.0651000760203555 13.385053300479337 12.920471787689534 -3 1 -2
5019 1673 1 -0.35 6.334363407620806 15.101540082804986 8.858240076587359 1 -1 5
5018 1673 2 0.7 7.094128115902582 15.920576636058726 8.566295268212723 1 -1 5
4148 1383 2 0.7 1.7757538836550366 16.215174034092048 10.833829634276443 -2 1 3
4147 1383 1 -0.35 0.7807213756898677 15.83858402014294 10.43647310038012 -2 1 3
3172 1058 1 -0.35 -0.008692883711941851 12.964184670634607 9.732304895039263 1 -1 -1
3250 1084 1 -0.35 3.0732076840564586 9.277772237338187 9.14088570067936 0 0 -2
4794 1598 1 -0.35 6.0544581626622085 17.78289855919663 2.9148862879230166 0 0 -2
3424 1142 1 -0.35 5.214501367633033 13.021574905289349 3.4873007962796336 0 2 -3
1340 447 2 0.7 6.50114507311204 12.035484305350861 7.331955865819134 0 5 -1
289 97 1 -0.35 4.455845162550673 10.619894532518783 12.058038860353449 1 4 -2
3715 1239 1 -0.35 0.15242351801300202 10.708021696731645 1.5390671306704986 5 -2 -2
5268 1756 1 -0.35 5.041445150430189 15.579112760279367 0.41467553881840935 -6 0 3
2796 932 1 -0.35 8.638686125879165 17.065820001477867 4.831052883775064 -3 2 5
1339 447 1 -0.35 7.602823675065723 12.322199744474215 7.430719981249059 0 5 -1
3159 1053 1 -0.35 7.827322559329518 12.887748055779886 11.163053920221024 1 3 -3
3174 1058 1 -0.35 -0.053835753806680486 14.192286675440174 7.792731735301403 1 -1 -1
2458 820 1 -0.35 14.863416295208447 11.55699784178317 6.695580783569479 -5 -4 0
1107 369 1 -0.35 17.746464574374187 17.974545006538367 8.082956367801104 2 -4 -1
1498 500 1 -0.35 17.724901245710424 15.374045804245979 0.16880060276793102 -3 1 2
5815 1939 1 -0.35 10.693997587865406 9.518988788376852 6.770158362494045 0 4 -1
3663 1221 1 -0.35 13.723185199997173 9.724920514970515 11.05201988619904 -3 -2 0
5516 1839 2 0.7 16.234929783625603 11.917476397939499 10.456072808121341 0 -3 1
5712 1904 1 -0.35 9.556853432777304 9.194772718517937 2.071656398837588 -1 0 3
2193 731 1 -0.35 13.093713102309641 16.684565709729785 12.879346038418573 1 -2 2
2460 820 1 -0.35 16.249166277091273 13.409668183963687 6.684316121467599 -5 -4 0
2192 731 2 0.7 11.96997998156 16.43140958958681 12.814798297735877 1 -2 2
5816 1939 2 0.7 11.04676757819371 10.608945207510699 6.4590138259612 0 4 -1
5817 1939 1 -0.35 11.461587938969844 11.693532720917876 6.317704864741147 0 4 -1
2191 731 1 -0.35 10.817199972649078 16.21787412324633 12.798831716445822 1 -2 2
2459 820 2 0.7 15.54750090593924 12.498039515537412 6.642319635421359 -5 -4 0
1751 584 2 0.7 13.792249112689282 15.068870994302879 5.044270134866645 -1 2 2
5711 1904 2 0.7 9.802177965287523 10.32244703604468 2.087802215716885 -1 0 3
2794 932 1 -0.35 10.724043907167909 17.227941232318404 3.78502379752969 -3 2 5
1750 584 1 -0.35 14.372099486795703 15.855312544813843 5.685929544504085 -1 2 2
4780 1594 1 -0.35 15.363149950941779 16.614074305364447 8.998076384677493 0 -1 -1
5515 1839 1 -0.35 15.899928002378731 12.958531097002053 10.050179838237032 0 -3 1
5517 1839 1 -0.35 16.653807567008624 10.891222412759554 10.750468868975178 0 -3 1
5710 1904 1 -0.35 9.91618681146566 11.474414372431642 2.153421287704157 -1 0 3
4939 1647 1 -0.35 10.289169751907073 14.775920529421626 8.604605043028686 -3 -1 2
4718 1573 2 0.7 15.928061099907815 16.33698110891889 13.053008883000976 0 0 2
682 228 1 -0.35 14.633042598023442 12.684446463329163 12.409844027063691 -2 0 3
1405 469 1 -0.35 14.802873989588196 11.199248616579323 2.7401022613310504 0 5 -3
2795 932 2 0.7 9.710589098854935 17.11052132772851 4.348701486314418 -3 2 5
683 228 2 0.7 13.572845073718723 13.144997012233572 12.348522755215859 -2 0 3
684 228 1 -0.35 12.507134271931982 13.586290990314758 12.209836465178578 -2 0 3
3491 1164 2 0.7 13.242232830315391 17.575991182396184 2.061694429481835 4 1 6
4719 1573 1 -0.35 15.922494102715483 16.93247432045159 12.044428052002036 0 0 2
3490 1164 1 -0.35 13.182972675503288 16.451748624735274 2.3313616947023985 4 1 6
4941 1647 1 -0.35 11.494823923588168 15.173810129314798 6.636047403212998 -3 -1 2
1406 469 2 0.7 13.695873804034099 10.924563951835246 2.534109828307837 0 5 -3
1407 469 1 -0.35 12.548771747236827 10.740837004577495 2.4201055460199434 0 5 -3
4782 1594 1 -0.35 13.014502387006688 16.43372987406973 9.007408741996716 0 -1 -1
1752 584 1 -0.35 13.19575510448441 14.324255028256882 4.4025651024198735 -1 2 2
4940 1647 2 0.7 10.913926201474736 14.92114493291838 7.628090625825728 -3 -1 2
4781 1594 2 0.7 14.205199868272022 16.459662048604383 9.066820656640948 0 -1 -1
4353 1451 1 -0.35 4.810308094503514 5.179427485350719 17.201530881612314 -2 0 1
4352 1451 2 0.7 4.991617012873613 4.0255146215879005 17.299162018073545 -2 0 1
4351 1451 1 -0.35 5.203967154538517 2.876085862555557 17.46891485081512 -2 0 1
3681 1227 1 -0.35 0.03193248041279345 7.303059366559006 22.710632050070256 -2 0 -1
1319 440 2 0.7 3.8603723600948863 6.935408784640266 14.519846166496325 0 3 -1
3680 1227 2 0.7 1.1120998944170635 7.003927119682367 22.98222455882364 -2 0 -1
3493 1165 1 -0.35 4.529591431743694 3.700053324636477 20.58893198662132 0 1 0
3494 1165 2 0.7 5.465737444179081 3.0547343777544627 20.313656891795873 0 1 0
3495 1165 1 -0.35 6.462360028270756 2.5079192970121746 20.154914317808526 0 1 0
3679 1227 1 -0.35 2.137067197930605 6.760185825622072 23.477443964209087 -2 0 -1
1318 440 1 -0.35 3.2762450021264 7.9218279991975455 14.737339582898578 0 3 -1
313 105 1 -0.35 0.8192191754746878 2.737083814449016 25.156353957372207 2 -2 2
2247 749 1 -0.35 6.810464304829743 1.7988229939702747 24.343650765708247 2 -2 -1
2784 928 1 -0.35 0.44815974548565785 6.421144538593408 19.679565847058782 1 3 0
5678 1893 2 0.7 4.749439656388305 5.774597830690012 26.64378004446608 5 -3 -2
5677 1893 1 -0.35 5.511452513088486 6.548932601493353 26.210125879601097 5 -3 -2
2782 928 1 -0.35 1.4394093056678285 5.542211356753885 17.78139945463648 1 3 0
2973 991 1 -0.35 8.687380585774935 1.4790137086957986 27.27193504276881 -1 1 0
2783 928 2 0.7 0.9579367474424236 5.964497048019376 18.7430756680222 1 3 0
314 105 2 0.7 1.4818913156320828 2.495790490838433 24.24091141728639 2 -2 2
2849 950 2 0.7 4.73630512631706 7.019907802271848 20.71437553860026 -3 2 2
2850 950 1 -0.35 3.7596085496265492 7.339005167148282 20.169947738019403 -3 2 2
156 52 1 -0.35 8.987079741018148 3.954441159471508 16.38054419979049 5 -1 1
5423 1808 2 0.7 0.25337559156566064 0.39310683920564493 14.846521049823107 3 -5 1
2848 950 1 -0.35 5.691772843959262 6.791913029835388 21.29580023700509 -3 2 2
315 105 1 -0.35 2.152627106760266 2.3508352844198117 23.29112808587233 2 -2 2
5679 1893 1 -0.35 4.077443674246301 4.937115484867572 27.08244926655798 5 -3 -2
2691 897 1 -0.35 0.044599029954235786 8.277352416563149 25.655768845977065 -1 -1 0
1063 355 1 -0.35 7.654481149608858 8.06459579468353 18.582202871860932 -1 -1 3
1064 355 2 0.7 8.213543802366598 8.7065665206761 17.770294051357777 -1 -1 3
2690 897 2 0.7 0.40232514316876783 8.318186654527343 26.750328404356807 -1 -1 0
3042 1014 1 -0.35 5.608540828158378 0.03279616371692638 18.6550166684988 3 -2 -1
2246 749 2 0.7 6.672162343152194 0.7770662973002581 24.836155504211266 2 -2 -1
5274 1758 1 -0.35 0.8985501944803933 1.7330316509203587 20.492248548044586 1 0 4
1767 589 1 -0.35 5.787040918656333 0.3742673417958363 14.474605402303954 2 2 -2
1766 589 2 0.7 6.764179507196753 -0.010906364488449519 13.980223500340081 2 2 -2
5440 1814 1 -0.35 8.982699033456385 0.3484749189132684 17.211933907396205 4 0 -1
5273 1758 2 0.7 0.9520973244472388 0.5799707382893009 20.738111266030323 1 0 4
1624 542 1 -0.35 5.024866045983809 8.415387279249346 16.940131666444074 1 3 5
5424 1808 1 -0.35 0.2769987958997788 1.5277496511212436 14.55545343611088 3 -5 1
1320 440 1 -0.35 4.5858378147353624 6.021328027606021 14.346670723509197 0 3 -1
5806 1936 1 -0.35 18.080358723800803 1.5622088206160287 22.563713188524048 2 0 -1
5190 1730 1 -0.35 17.51087921824152 4.957257125154909 16.370892059630467 4 1 1
155 52 2 0.7 9.65267870861588 3.154631071757007 15.797236865545624 5 -1 1
154 52 1 -0.35 10.321490243615925 2.354161324348823 15.298240766835956 5 -1 1
3240 1080 1 -0.35 16.316272846852787 0.37044679169767414 15.056715935527166 0 0 0
4804 1602 1 -0.35 17.37739708192248 6.394328337156835 20.85254188011343 -5 -2 -6
3238 1080 1 -0.35 14.937460770444847 1.9328105812581047 13.921186856961599 0 0 0
5043 1681 1 -0.35 10.42985549850145 5.584328388398581 14.240098452296166 3 0 0
967 323 1 -0.35 14.60611658745217 1.1002782467704162 21.49722668393713 -1 1 -4
3239 1080 2 0.7 15.565535087895782 1.1419775843333362 14.565434892779331 0 0 0
2812 938 1 -0.35 15.914110410383067 1.1443545264176618 25.657494488765604 -2 -1 1
2814 938 1 -0.35 17.585852022540035 2.6746516693991573 25.527113159817446 -2 -1 1
3383 1128 2 0.7 14.273072082647786 5.105055532218911 24.336957444756557 0 1 -4
4295 1432 2 0.7 11.07574905803331 2.654369889260197 18.446159565558286 -6 0 1
4296 1432 1 -0.35 11.892192657579912 2.838669951760152 17.701671204745097 -6 0 1
1384 462 1 -0.35 13.516727392502665 5.365490829293471 13.815254332268708 3 -3 1
968 323 2 0.7 14.631916812179762 -0.057523762186359864 21.587339102178632 -1 1 -4
4294 1432 1 -0.35 10.355432140709718 2.4153349466224667 19.314915317844296 -6 0 1
3353 1118 2 0.7 11.574473740249847 9.105862199839208 15.63800011313352 3 2 0
4806 1602 1 -0.35 16.955641983752283 4.817449520847559 22.54189428708485 -5 -2 -6
1787 596 2 0.7 14.369986845413642 4.444681147330692 17.155447865210963 -1 0 0
5699 1900 2 0.7 15.290718198304363 8.019353204323853 19.38589548900238 -2 2 6
4805 1602 2 0.7 17.125638203452578 5.658635000710458 21.73057772725092 -5 -2 -6
1985 662 2 0.7 10.182281390180133 2.617055095103971 22.99201985563241 1 0 -1
1984 662 1 -0.35 9.51294124429068 3.4731113629338064 23.384652701101857 1 0 -1
1986 662 1 -0.35 10.888972542320932 1.7285667977677237 22.797692823670676 1 0 -1
4739 1580 2 0.7 11.595302084839577 8.67240688980785 20.866350949858898 2 -4 -1
5700 1900 1 -0.35 15.854994269254046 7.884347944524378 18.367765893705563 -2 2 6
4740 1580 1 -0.35 11.335628206458589 7.568581176484078 21.036005676836815 2 -4 -1
1788 596 1 -0.35 14.000320565723547 5.313250058807614 17.84369993335559 -1 0 0
2813 938 2 0.7 16.734811216061882 1.9112722721035489 25.528763052579578 -2 -1 1
1786 596 1 -0.35 14.701378674913345 3.5311469507859217 16.542356808541943 -1 0 0
5698 1900 1 -0.35 14.782074764403179 8.112878740149702 20.42977016304739 -2 2 6
3354 1118 1 -0.35 11.981074804654858 8.742598702752709 16.675450381516416 3 2 0
3382 1128 1 -0.35 14.465677110793699 4.009539487569268 24.744590958601425 0 1 -4
3384 1128 1 -0.35 14.155361138201334 6.212486932901341 23.96826764873832 0 1 -4
5188 1730 1 -0.35 17.91000006608743 7.134567052874639 15.732622174359214 4 1 1
5189 1730 2 0.7 17.730428650925155 6.055055478973186 16.110572872372643 4 1 1
544 182 1 -0.35 13.059059326879202 1.3946631231343634 27.203350416288746 2 4 2
1626 542 1 -0.35 5.5407552368392 10.360203573212464 15.885340173146622 1 3 5
231 77 1 -0.35 0.09767457586154066 14.920726758166069 20.907757505784044 -2 4 1
1625 542 2 0.7 5.275062961717837 9.374976893309922 16.385258870174734 1 3 5
5069 1690 2 0.7 0.32380641027726026 14.329374861971829 15.007750743356558 1 -2 4
5070 1690 1 -0.35 1.2121991682460163 15.085044741062747 15.284130434168084 1 -2 4
3921 1307 1 -0.35 2.6566413223290537 12.236475261104367 16.598577535638018 2 -1 -2
4273 1425 1 -0.35 6.753179757410767 10.321726868149433 26.10064699863642 -2 -1 4
4405 1469 1 -0.35 0.00034819696884384743 17.387149185420096 18.678200211195453 -1 1 3
4274 1425 2 0.7 7.516300851458892 10.518791492820199 26.89559994269898 -2 -1 4
1065 355 1 -0.35 8.799483154372222 9.166164419945305 16.891085703727803 -1 -1 3
4406 1469 2 0.7 0.6920982231575578 18.06620073252426 19.30227005105598 -1 1 3
12 4 1 -0.35 8.144982068130394 12.79129832389575 16.023837132763305 0 2 3
4898 1633 2 0.7 0.7745567263901895 10.927797884620206 22.046698264536484 -2 6 -1
387 129 1 -0.35 6.447331027217228 11.641434801859075 22.44124231707601 2 0 5
4899 1633 1 -0.35 1.2669549535900289 9.906666774184325 22.18142576315398 -2 6 -1
385 129 1 -0.35 4.206896886654973 12.137223670869563 22.802830565851337 2 0 5
386 129 2 0.7 5.306627245631003 11.86569384926808 22.63389752407599 2 0 5
483 161 1 -0.35 2.4791546682871624 10.99715166684397 19.508176414223012 1 -1 -4
229 77 1 -0.35 2.0288921842828946 14.529261069236643 19.61066264101415 -2 4 1
3508 1170 1 -0.35 7.004973622773703 17.610741492105205 18.96783454671424 1 -1 0
3920 1307 2 0.7 1.6700123496266066 11.685369064757477 16.413754952025965 2 -1 -2
482 161 2 0.7 3.4455171309125316 10.544552636081542 19.971168397560646 1 -1 -4
481 161 1 -0.35 4.4159633922034125 10.215608241692646 20.43350206641007 1 -1 -4
230 77 2 0.7 1.0740202791361757 14.716047631324043 20.26393218755493 -2 4 1
1823 608 2 0.7 4.93901475401666 14.175692851725644 20.502485391814503 -2 0 -2
2913 971 1 -0.35 4.423783827509724 17.82489482509924 15.064718231709067 -5 4 -4
2912 971 2 0.7 3.803289786802943 18.125541676163657 15.99173520678374 -5 4 -4
3407 1136 2 0.7 2.1437749064421734 11.97379974837613 25.423479923652323 -2 -3 -4
4297 1433 1 -0.35 6.5575476906811945 15.826019785910683 26.692762227536296 0 1 1
4298 1433 2 0.7 6.651485021764207 15.084023637901543 25.793743149912935 0 1 1
1822 608 1 -0.35 5.03247371964534 13.076160547518594 20.1357123941489 -2 0 -2
4299 1433 1 -0.35 6.688977600529603 14.377782263168571 24.897788914976623 0 1 1
3408 1136 1 -0.35 2.1121401175874044 10.788850721343602 25.55260685493025 -2 -3 -4
4281 1427 1 -0.35 8.636329562938261 15.703049944055886 15.083676271824993 0 -2 3
4280 1427 2 0.7 7.8101666914345165 15.566790054601075 15.867895968575263 0 -2 3
3406 1136 1 -0.35 2.3660806895716147 13.116906205354185 25.393030676245203 -2 -3 -4
1824 608 1 -0.35 5.013073780073015 15.260899490951436 20.964617240128703 -2 0 -2
4279 1427 1 -0.35 6.939137266061621 15.42918294090835 16.59705732361549 0 -2 3
372 124 1 -0.35 1.976798634754367 15.334485099060247 23.13221104101858 3 2 7
371 124 2 0.7 1.3738224882083108 16.085328136662756 23.79197747856076 3 2 7
370 124 1 -0.35 0.8414634349001999 16.704919216833048 24.56529052878912 3 2 7
3919 1307 1 -0.35 0.6885673807305137 11.056902691222964 16.20810330418854 2 -1 -2
5387 1796 2 0.7 8.67964790002172 13.956097395354131 21.123607456595046 -3 2 3
5388 1796 1 -0.35 9.06004885871391 14.012847664001104 22.192768418942922 -3 2 3
5386 1796 1 -0.35 8.272149112391944 13.813717224653146 20.04446122498224 -3 2 3
4897 1633 1 -0.35 0.42252774763967627 12.011582481200188 21.76340449643831 -2 6 -1
11 4 2 0.7 8.436695396558886 12.504939273079339 14.889995311181039 0 2 3
10 4 1 -0.35 8.803835861770105 12.184531619375155 13.836348024539186 0 2 3
3203 1068 2 0.7 2.503812626410685 18.255147853584738 27.192513966148972 1 -1 -1
4717 1573 1 -0.35 15.89083727375964 15.836743401493365 14.134571912485988 0 0 2
5144 1715 2 0.7 17.34330816765004 12.519223181847615 22.62154739532454 3 1 -1
3799 1267 1 -0.35 12.578947254460921 11.215980038942751 24.464742189148037 -2 4 -5
4033 1345 1 -0.35 11.062962838125344 17.940679101836906 24.482558000415608 3 -1 -4
4738 1580 1 -0.35 11.887261550166453 9.740856813400686 20.525054476279784 2 -4 -1
3352 1118 1 -0.35 11.144563688747503 9.528251019023221 14.646183446462533 3 2 0
3472 1158 1 -0.35 9.739276719992361 9.237526007520854 24.70341248076834 -2 0 -4
2016 672 1 -0.35 14.514031539515837 17.87360192811207 16.049216203120753 3 2 -1
1876 626 1 -0.35 14.435242111341006 11.695243332761827 21.443964161814662 -2 -1 -2
5474 1825 2 0.7 13.761206865896524 15.178936999655154 19.499384781787892 -1 -1 -6
3474 1158 1 -0.35 9.479008225293724 11.533483500295624 24.800778369060417 -2 0 -4
5145 1715 1 -0.35 17.32347432818939 11.989890263709746 23.635275900577486 3 1 -1
1837 613 1 -0.35 16.131530689239028 12.750785074943153 26.69101277490379 0 -3 -4
5143 1715 1 -0.35 17.437084286042833 13.05207206450579 21.56027145953549 3 1 -1
3800 1267 2 0.7 13.724899071806197 11.075007371760105 24.620932161890313 -2 4 -5
4034 1345 2 0.7 12.016775065950975 17.990357790666952 23.83761214164819 3 -1 -4
4035 1345 1 -0.35 12.927946884824669 18.088653084193375 23.067006503708072 3 -1 -4
2015 672 2 0.7 15.353325580297357 18.169217371813595 16.769415142564224 3 2 -1
1877 626 2 0.7 14.283268916511073 11.663877599488686 20.278472749806298 -2 -1 -2
5384 1795 2 0.7 14.924154146837896 14.963177201808628 24.210886475350335 -1 1 -1
1838 613 2 0.7 16.765976880732 11.821884084082098 26.811970072160047 0 -3 -4
3473 1158 2 0.7 9.704629623494792 10.408427221160178 24.777029608232 -2 0 -4
5587 1863 1 -0.35 17.762286022636687 11.344856946167521 16.876625082014563 -1 1 -3
1878 626 1 -0.35 14.171702632080486 11.592348915650442 19.10670702978929 -2 -1 -2
5383 1795 1 -0.35 14.109339452765198 14.185357342078031 23.876425476887544 -1 1 -1
5385 1795 1 -0.35 15.747386180922092 15.706150736669345 24.497765231413524 -1 1 -1
3699 1233 1 -0.35 10.037835238753924 17.27404897175604 19.991510258855275 2 2 1
5475 1825 1 -0.35 14.476086909108005 15.873626926893511 18.91271389994001 -1 -1 -6
3698 1233 2 0.7 10.255206580884757 18.033893716044528 19.113340487043462 2 2 1
5473 1825 1 -0.35 13.17646535869186 14.453513047993843 20.15062189377642 -1 -1 -6
3801 1267 1 -0.35 14.842408149430742 10.820509256555741 24.757941025495345 -2 4 -5
2522 841 2 0.7 11.819821367875312 14.99201361514848 16.454656335536676 4 -2 -5
5589 1863 1 -0.35 16.56519722000586 11.783943062838695 14.966013098724286 -1 1 -3
2521 841 1 -0.35 11.860666188483409 15.475625354616263 17.519087614518156 4 -2 -5
2523 841 1 -0.35 11.756129335000239 14.503646038348924 15.433688122043517 4 -2 -5
5588 1863 2 0.7 17.12095926448307 11.533428223981275 15.938025974068694 -1 1 -3
303 101 1 -0.35 15.744634550840333 16.47657025806355 27.15117871506173 3 -4 2
1839 613 1 -0.35 17.502334209085816 10.940595038885602 26.92822947954599 0 -3 -4
5125 1709 1 -0.35 4.898595387224823 1.704953696128729 33.37135195258037 1 -4 2
5126 1709 2 0.7 5.028853942260042 2.7213125099474595 32.87440848067991 1 -4 2
2269 757 1 -0.35 7.944135881042573 6.663743764048092 28.712021130819007 1 2 -1
2388 796 1 -0.35 1.4313898631775068 1.1522328177819456 32.853955960030135 -2 6 -4
5932 1978 1 -0.35 3.162028975295984 3.86375547863152 35.610001331563055 -2 5 -3
5934 1978 1 -0.35 4.173530756653093 5.96048516296509 35.80788082724404 -2 5 -3
5933 1978 2 0.7 3.7051149083605837 4.884348159681485 35.62396784149748 -2 5 -3
2972 991 2 0.7 8.33290171131593 2.0494581598448596 28.256761214559678 -1 1 0
2270 757 2 0.7 8.580890913729569 6.754228181299401 29.649692822583372 1 2 -1
5977 1993 1 -0.35 6.018511767995066 3.4198575545161147 37.20506977114062 -1 -2 -2
2271 757 1 -0.35 9.08822881546891 6.843952004018155 30.653824097427485 1 2 -1
4437 1479 1 -0.35 1.4732346554704432 5.162292739364502 33.41088828210108 -3 2 1
2971 991 1 -0.35 7.947455426328874 2.6463798149404534 29.183922667112036 -1 1 0
4436 1479 2 0.7 0.5990331881668512 5.748916980965305 33.85595061558088 -3 2 1
2387 796 2 0.7 1.5441191837311052 0.6425210627372607 31.80610425814753 -2 6 -4
5978 1993 2 0.7 6.0737174503577185 2.4548827540929605 37.87496952894666 -1 -2 -2
5979 1993 1 -0.35 6.0936418076921965 1.534937478564449 38.5453469122081 -1 -2 -2
5127 1709 1 -0.35 5.130707756037276 3.7897479046514357 32.4063603305163 1 -4 2
5142 1714 1 -0.35 8.521784763391363 2.939401950398922 35.428614024386086 1 -4 -1
2386 796 1 -0.35 1.7246549873476102 0.19020137933230075 30.758347976194706 -2 6 -4
5196 1732 1 -0.35 1.113228323871285 2.4068275267127937 28.233247356375923 8 3 -1
5194 1732 1 -0.35 3.051840912081673 1.1379739905337818 28.145073064730536 8 3 -1
5648 1883 2 0.7 8.796054600308517 4.888800542467375 39.8705417504082 1 -2 1
5647 1883 1 -0.35 8.686297586205663 5.842921117830143 39.22001264295258 1 -2 1
2689 897 1 -0.35 0.7368763341657129 8.506099376719206 27.867402042331975 -1 -1 0
5195 1732 2 0.7 2.0396598144404416 1.716339493157084 28.246605300397277 8 3 -1
5649 1883 1 -0.35 8.875184902873627 3.9483451440379635 40.5438034583365 1 -2 1
5427 1809 1 -0.35 3.815092427888974 0.1799413399199139 37.03470882041843 1 3 2
4512 1504 1 -0.35 0.0453756815464601 2.77414779921408 39.50780410619461 -1 3 -2
4252 1418 1 -0.35 2.2447327720416643 3.3318263898214697 41.22535026857437 -2 4 0
103 35 1 -0.35 9.614865376096917 7.674530051764888 34.34245949425687 2 -1 -2
104 35 2 0.7 9.706876940788556 8.814775489048673 34.4661649315721 2 -1 -2
2023 675 1 -0.35 12.703200405247442 0.3779106965796372 30.156011323800108 2 4 1
2633 878 2 0.7 13.147791011068971 2.827496854328336 31.86550232087368 -1 -1 2
5140 1714 1 -0.35 10.63551485202912 2.912185935248497 34.37819853882449 1 -4 -1
3082 1028 1 -0.35 14.578769661978223 8.076387830367137 29.385139153851853 0 -1 -2
3083 1028 2 0.7 15.230100118981024 7.254888399867485 28.883897715296776 0 -1 -2
3084 1028 1 -0.35 15.76845190122047 6.3874962026750834 28.334839441908507 0 -1 -2
5141 1714 2 0.7 9.57485458569428 2.918245422840526 34.88029921942631 1 -4 -1
325 109 1 -0.35 12.091789816476206 5.360560831034369 36.18571420678683 -2 0 -4
1862 621 2 0.7 13.465162636935867 3.9742669413108516 40.074746792065135 3 -4 -1
1417 473 1 -0.35 13.703859563111813 1.5937533085633506 37.64719650451154 5 -1 3