LAMMPS (2 Aug 2023)
WARNING: Using I/O redirection is unreliable with parallel runs. Better to use the -in switch to read input files. (../lammps.cpp:537)
Reading data file ...
  orthogonal box = (0 0 0) to (29.301001 29.301001 195.34001)
  2 by 2 by 9 MPI processor grid
  reading atoms ...
  6000 atoms
  reading velocities ...
  6000 velocities
  scanning bonds ...
  1 = max bonds/atom
  scanning angles ...
  1 = max angles/atom
  reading bonds ...
  4000 bonds
  reading angles ...
  2000 angles
Finding 1-2 1-3 1-4 neighbors ...
  special bond factors lj:    0        0        0       
  special bond factors coul:  0        0        0       
     2 = max # of 1-2 neighbors
     1 = max # of 1-3 neighbors
     1 = max # of 1-4 neighbors
     2 = max # of special neighbors
  special bonds CPU = 0.002 seconds
  read_data CPU = 0.674 seconds
Step T_hot T_cold
Step Temp Pressure Total_Energy Volume Density x_length z_length Total_Heat_Flux
PPPM initialization ...
  using 12-bit tables for long-range coulomb (../kspace.cpp:342)
  G vector (1/distance) = 0.26786272
  grid = 32 32 128
  stencil order = 5
  estimated absolute RMS force accuracy = 0.00040746971
  estimated relative force accuracy = 1.2270829e-06
  using double precision KISS FFT
  3d grid and FFT values/proc = 13750 4096
Generated 1 of 1 mixed pair_coeff terms from arithmetic mixing rule
Neighbor list info ...
  update: every = 1 steps, delay = 0 steps, check = yes
  max neighbors/atom: 2000, page size: 100000
  master list distance cutoff = 15
  ghost atom cutoff = 15
  binsize = 7.5, bins = 4 4 27
  1 neighbor lists, perpetual/occasional/extra = 1 0 0
  (1) pair lj/cut/coul/long, perpetual
      attributes: half, newton on
      pair build: half/bin/newton
      stencil: half/bin/3d
      bin: standard
Setting up Verlet run ...
  Unit style    : real
  Current step  : 0
  Time step     : 0.5
0 0.0000 0.0000
0 299.691339639467 257.665647798069 2999.7199050975200407 167708.905011064 0.87150396265892804415 29.301001239983598623 195.34000826655699257 0
Per MPI rank memory allocation (min/avg/max) = 8.172 | 8.211 | 8.234 Mbytes
   Step           Dt            Temp          Press          TotEng         Volume        Density        E_delta    
         0   0.5            299.69134      257.66565      2999.7199      167708.91      0.87150396     0            
4000 301.099063397546 -303.895667480742 2999.835991435500091 167708.905011064 0.87150396265892804415 29.301001239983598623 195.34000826655699257 2.6065332683526700741
      4000   0.5            301.09906     -303.89567      2999.836       167708.91      0.87150396     2.6065333    
8000 302.69005607881 -439.025527168285 2999.7869591385101558 167708.905011064 0.87150396265892804415 29.301001239983598623 195.34000826655699257 5.5230428842309295945
      8000   0.5            302.69006     -439.02553      2999.787       167708.91      0.87150396     5.5230429    
10000 309.4474 276.6618
12000 302.641940597289 -108.273705476212 2999.9062897750500269 167708.905011064 0.87150396265892804415 29.301001239983598623 195.34000826655699257 10.733403331586000462
     12000   0.5            302.64194     -108.27371      2999.9063      167708.91      0.87150396     10.733403    
16000 298.53728397993 1024.54741353085 2999.7635186825100391 167708.905011064 0.87150396265892804415 29.301001239983598623 195.34000826655699257 14.225710964033899231
     16000   0.5            298.53728      1024.5474      2999.7635      167708.91      0.87150396     14.225711    
20000 300.7469 283.4030
20000 299.414911092271 510.666708035411 3000.0564064846098518 167708.905011064 0.87150396265892804415 29.301001239983598623 195.34000826655699257 17.451978991968100985
     20000   0.5            299.41491      510.66671      3000.0564      167708.91      0.87150396     17.451979    
24000 301.955509138854 365.863635008215 2999.9283273225801167 167708.905011064 0.87150396265892804415 29.301001239983598623 195.34000826655699257 20.464135720894500281
     24000   0.5            301.95551      365.86364      2999.9283      167708.91      0.87150396     20.464136    
28000 299.866610089634 -229.990637812566 2999.8558532102802019 167708.905011064 0.87150396265892804415 29.301001239983598623 195.34000826655699257 23.232680319168501626
     28000   0.5            299.86661     -229.99064      2999.8559      167708.91      0.87150396     23.23268     
30000 288.1803 280.5140
32000 299.65582103179 -126.960002890963 2999.8781633969601899 167708.905011064 0.87150396265892804415 29.301001239983598623 195.34000826655699257 29.308035645791999713
     32000   0.5            299.65582     -126.96         2999.8782      167708.91      0.87150396     29.308036    
36000 302.755161893054 709.36516222805 2999.6307935582699429 167708.905011064 0.87150396265892804415 29.301001239983598623 195.34000826655699257 32.782352748832899181
     36000   0.5            302.75516      709.36516      2999.6308      167708.91      0.87150396     32.782353    
40000 299.8152 294.8087
40000 302.02147153065 -260.0525824408 2999.6983782771999358 167708.905011064 0.87150396265892804415 29.301001239983598623 195.34000826655699257 36.161950113073096702
     40000   0.5            302.02147     -260.05258      2999.6984      167708.91      0.87150396     36.16195     
44000 301.538223602014 49.327635834881 2999.6305437021801481 167708.905011064 0.87150396265892804415 29.301001239983598623 195.34000826655699257 39.03069393005679899
     44000   0.5            301.53822      49.327636      2999.6305      167708.91      0.87150396     39.030694    
48000 298.895034583149 -48.8705859565019 2999.8439954432601553 167708.905011064 0.87150396265892804415 29.301001239983598623 195.34000826655699257 42.4980820003353017
     48000   0.5            298.89503     -48.870586      2999.844       167708.91      0.87150396     42.498082    
50000 312.7357 287.3121
52000 300.439637556569 -102.517868112837 2999.9347321429600015 167708.905011064 0.87150396265892804415 29.301001239983598623 195.34000826655699257 45.857114458731096818
     52000   0.5            300.43964     -102.51787      2999.9347      167708.91      0.87150396     45.857114    
56000 298.923588399569 210.280457074832 2999.761837904190088 167708.905011064 0.87150396265892804415 29.301001239983598623 195.34000826655699257 51.067406353275202946
     56000   0.5            298.92359      210.28046      2999.7618      167708.91      0.87150396     51.067406    
60000 310.7948 284.1339
60000 300.608784131362 782.394841990241 2999.7155207863002033 167708.905011064 0.87150396265892804415 29.301001239983598623 195.34000826655699257 54.538997307975797924
     60000   0.5            300.60878      782.39484      2999.7155      167708.91      0.87150396     54.538997    
64000 304.124818567292 -143.870552076172 2999.5247113888499371 167708.905011064 0.87150396265892804415 29.301001239983598623 195.34000826655699257 57.747762906853303377
     64000   0.5            304.12482     -143.87055      2999.5247      167708.91      0.87150396     57.747763    
68000 302.410695367514 12.6068803042413 2999.6027240688699749 167708.905011064 0.87150396265892804415 29.301001239983598623 195.34000826655699257 60.970452336477400479
     68000   0.5            302.4107       12.60688       2999.6027      167708.91      0.87150396     60.970452    
70000 311.7057 293.9599
72000 299.295985872286 77.3442342113527 2999.8180695729402032 167708.905011064 0.87150396265892804415 29.301001239983598623 195.34000826655699257 63.684779921691202276
     72000   0.5            299.29599      77.344234      2999.8181      167708.91      0.87150396     63.68478     
76000 300.899204977905 -81.338043206229 2999.7237214541901267 167708.905011064 0.87150396265892804415 29.301001239983598623 195.34000826655699257 66.916888906643507084
     76000   0.5            300.8992      -81.338043      2999.7237      167708.91      0.87150396     66.916889    
80000 306.4932 279.4684
80000 303.824081203484 166.147721118987 2999.9408586045001357 167708.905011064 0.87150396265892804415 29.301001239983598623 195.34000826655699257 72.094138718607396754
     80000   0.5            303.82408      166.14772      2999.9409      167708.91      0.87150396     72.094139    
84000 305.02507670861 316.743982703505 2999.5713090998201551 167708.905011064 0.87150396265892804415 29.301001239983598623 195.34000826655699257 76.588484862130997044
     84000   0.5            305.02508      316.74398      2999.5713      167708.91      0.87150396     76.588485    
88000 300.143087168416 62.0166708076729 2999.7359329001801598 167708.905011064 0.87150396265892804415 29.301001239983598623 195.34000826655699257 80.384743298633296149
     88000   0.5            300.14309      62.016671      2999.7359      167708.91      0.87150396     80.384743    
90000 325.1691 288.6263
92000 303.623396601726 608.288324420939 2999.633088185159977 167708.905011064 0.87150396265892804415 29.301001239983598623 195.34000826655699257 83.588675058485193858
     92000   0.5            303.6234       608.28832      2999.6331      167708.91      0.87150396     83.588675    
96000 299.585376989972 -216.357638417393 2999.843616493350055 167708.905011064 0.87150396265892804415 29.301001239983598623 195.34000826655699257 87.431013992131497048
     96000   0.5            299.58538     -216.35764      2999.8436      167708.91      0.87150396     87.431014    
100000 297.1085 278.9446
100000 299.873225141919 -520.337055873207 2999.8841885121300948 167708.905011064 0.87150396265892804415 29.301001239983598623 195.34000826655699257 90.669243515848705783
    100000   0.5            299.87323     -520.33706      2999.8842      167708.91      0.87150396     90.669244    
104000 302.659634799041 -184.917031455564 2999.7446824555499916 167708.905011064 0.87150396265892804415 29.301001239983598623 195.34000826655699257 94.873541727352105113
    104000   0.5            302.65963     -184.91703      2999.7447      167708.91      0.87150396     94.873542    
108000 297.997851987466 -70.4570270936764 2999.6982439791599973 167708.905011064 0.87150396265892804415 29.301001239983598623 195.34000826655699257 98.784278747638794016
    108000   0.5            297.99785     -70.457027      2999.6982      167708.91      0.87150396     98.784279    
110000 324.4291 296.2813
112000 299.869621231669 655.682846948147 2999.7172457218798627 167708.905011064 0.87150396265892804415 29.301001239983598623 195.34000826655699257 101.70967526824199467
    112000   0.5            299.86962      655.68285      2999.7172      167708.91      0.87150396     101.70968    
116000 298.829050469761 572.733363057162 2999.4534465458600607 167708.905011064 0.87150396265892804415 29.301001239983598623 195.34000826655699257 104.08295359065000696
    116000   0.5            298.82905      572.73336      2999.4534      167708.91      0.87150396     104.08295    
120000 320.1824 291.5381
120000 300.901598545959 683.794820361128 2999.5571107683899754 167708.905011064 0.87150396265892804415 29.301001239983598623 195.34000826655699257 107.49718248049900637
    120000   0.5            300.9016       683.79482      2999.5571      167708.91      0.87150396     107.49718    
124000 303.952891655634 350.439995557024 2999.2754504678200647 167708.905011064 0.87150396265892804415 29.301001239983598623 195.34000826655699257 111.83294794110099701
    124000   0.5            303.95289      350.44         2999.2755      167708.91      0.87150396     111.83295    
128000 301.088318011513 -209.711876810532 2999.50196027435004 167708.905011064 0.87150396265892804415 29.301001239983598623 195.34000826655699257 115.07338140267900428
    128000   0.5            301.08832     -209.71188      2999.502       167708.91      0.87150396     115.07338    
130000 320.2324 287.2481
132000 300.817548254709 591.85863262507 2999.399121928940076 167708.905011064 0.87150396265892804415 29.301001239983598623 195.34000826655699257 117.99405233939600635
    132000   0.5            300.81755      591.85863      2999.3991      167708.91      0.87150396     117.99405    
136000 304.588640256038 162.889965483177 2999.2975653857001817 167708.905011064 0.87150396265892804415 29.301001239983598623 195.34000826655699257 121.92820904998899323
    136000   0.5            304.58864      162.88997      2999.2976      167708.91      0.87150396     121.92821    
140000 325.2993 281.5416
140000 301.505152555468 266.921791558828 2999.1817936571301288 167708.905011064 0.87150396265892804415 29.301001239983598623 195.34000826655699257 125.41335112597199952
    140000   0.5            301.50515      266.92179      2999.1818      167708.91      0.87150396     125.41335    
144000 303.259491625029 100.339427616748 2999.1872452564598461 167708.905011064 0.87150396265892804415 29.301001239983598623 195.34000826655699257 130.71366456835801273
    144000   0.5            303.25949      100.33943      2999.1872      167708.91      0.87150396     130.71366    
148000 303.03656081862 299.362878680021 2999.2235480062099668 167708.905011064 0.87150396265892804415 29.301001239983598623 195.34000826655699257 133.87339975520998792
    148000   0.5            303.03656      299.36288      2999.2235      167708.91      0.87150396     133.8734     
150000 310.9105 292.2442
152000 300.290118639526 200.72085224066 2999.2768711337698733 167708.905011064 0.87150396265892804415 29.301001239983598623 195.34000826655699257 136.46943658745598782
    152000   0.5            300.29012      200.72085      2999.2769      167708.91      0.87150396     136.46944    
156000 299.727092205081 159.952426756572 2999.3230728165899563 167708.905011064 0.87150396265892804415 29.301001239983598623 195.34000826655699257 139.36601824479799916
    156000   0.5            299.72709      159.95243      2999.3231      167708.91      0.87150396     139.36602    
160000 302.3168 281.6957
160000 301.484409610262 677.650961988468 2999.3836277884702213 167708.905011064 0.87150396265892804415 29.301001239983598623 195.34000826655699257 143.10470420139299108
    160000   0.5            301.48441      677.65096      2999.3836      167708.91      0.87150396     143.1047     
164000 301.018674211808 -71.5541971645549 2999.154133782019926 167708.905011064 0.87150396265892804415 29.301001239983598623 195.34000826655699257 146.69541734992699844
    164000   0.5            301.01867     -71.554197      2999.1541      167708.91      0.87150396     146.69542    
168000 296.336045529346 334.252067953187 2999.4425325204902038 167708.905011064 0.87150396265892804415 29.301001239983598623 195.34000826655699257 149.50646503657799258
    168000   0.5            296.33605      334.25207      2999.4425      167708.91      0.87150396     149.50647    
170000 308.6523 281.2571
172000 303.350068992496 604.254722955311 2999.3618514741601757 167708.905011064 0.87150396265892804415 29.301001239983598623 195.34000826655699257 153.20400204619900819
    172000   0.5            303.35007      604.25472      2999.3619      167708.91      0.87150396     153.204      
176000 295.65299989078 528.218177961422 2999.5358931257501354 167708.905011064 0.87150396265892804415 29.301001239983598623 195.34000826655699257 156.7445300138319908
    176000   0.5            295.653        528.21818      2999.5359      167708.91      0.87150396     156.74453    
180000 306.8951 305.1681
180000 299.484257855936 271.208239010635 2999.5278474252900196 167708.905011064 0.87150396265892804415 29.301001239983598623 195.34000826655699257 159.70375650863900319
    180000   0.5            299.48426      271.20824      2999.5278      167708.91      0.87150396     159.70376    
184000 302.896439269875 -338.084510232761 2999.3130085631901238 167708.905011064 0.87150396265892804415 29.301001239983598623 195.34000826655699257 163.50966994152199163
    184000   0.5            302.89644     -338.08451      2999.313       167708.91      0.87150396     163.50967    
188000 298.002101160433 -253.017043271864 2999.5604395618001945 167708.905011064 0.87150396265892804415 29.301001239983598623 195.34000826655699257 169.21242033250899794
    188000   0.5            298.0021      -253.01704      2999.5604      167708.91      0.87150396     169.21242    
190000 301.4389 290.9453
192000 300.479750182625 -409.575222576638 2999.4420130671401239 167708.905011064 0.87150396265892804415 29.301001239983598623 195.34000826655699257 172.5461278960210052
    192000   0.5            300.47975     -409.57522      2999.442       167708.91      0.87150396     172.54613    
196000 297.708451242795 -54.3052439268807 2999.2232291247701141 167708.905011064 0.87150396265892804415 29.301001239983598623 195.34000826655699257 175.35390433690699297
    196000   0.5            297.70845     -54.305244      2999.2232      167708.91      0.87150396     175.3539     
200000 319.4384 298.1540
200000 299.277079201726 -122.86456343047 2999.3848606575697886 167708.905011064 0.87150396265892804415 29.301001239983598623 195.34000826655699257 179.42158724302299788
    200000   0.5            299.27708     -122.86456      2999.3849      167708.91      0.87150396     179.42159    
204000 300.844040449413 387.971964391332 2999.2878879676400175 167708.905011064 0.87150396265892804415 29.301001239983598623 195.34000826655699257 183.71066144717801194
    204000   0.5            300.84404      387.97196      2999.2879      167708.91      0.87150396     183.71066    
208000 299.943966663089 81.0525626410526 2999.3653179443699628 167708.905011064 0.87150396265892804415 29.301001239983598623 195.34000826655699257 186.63798545130501338
    208000   0.5            299.94397      81.052563      2999.3653      167708.91      0.87150396     186.63799    
210000 329.9009 288.9357
212000 298.888091760304 -157.6493161103 2999.4584682923700711 167708.905011064 0.87150396265892804415 29.301001239983598623 195.34000826655699257 190.28233938217499599
    212000   0.5            298.88809     -157.64932      2999.4585      167708.91      0.87150396     190.28234    
216000 307.130017237942 -76.4764007160287 2998.9931721634898167 167708.905011064 0.87150396265892804415 29.301001239983598623 195.34000826655699257 192.89386784300299382
    216000   0.5            307.13002     -76.476401      2998.9932      167708.91      0.87150396     192.89387    
220000 320.2571 269.7835
220000 300.975964328453 511.845366147688 2999.2676806180302265 167708.905011064 0.87150396265892804415 29.301001239983598623 195.34000826655699257 195.48670747352500143
    220000   0.5            300.97596      511.84537      2999.2677      167708.91      0.87150396     195.48671    
224000 299.907643431694 104.300428887161 2999.3632485791699764 167708.905011064 0.87150396265892804415 29.301001239983598623 195.34000826655699257 198.94484537183399198
    224000   0.5            299.90764      104.30043      2999.3632      167708.91      0.87150396     198.94485    
228000 300.342918833791 -273.72342683078 2999.3419439086801503 167708.905011064 0.87150396265892804415 29.301001239983598623 195.34000826655699257 202.51046436852999477
    228000   0.5            300.34292     -273.72343      2999.3419      167708.91      0.87150396     202.51046    
230000 307.4162 278.0740
232000 297.921330954649 97.5588076514207 2999.3495680955102216 167708.905011064 0.87150396265892804415 29.301001239983598623 195.34000826655699257 206.38211827733499604
    232000   0.5            297.92133      97.558808      2999.3496      167708.91      0.87150396     206.38212    
236000 297.362526645633 299.025871023335 2999.6016965224798696 167708.905011064 0.87150396265892804415 29.301001239983598623 195.34000826655699257 210.35740028481700392
    236000   0.5            297.36253      299.02587      2999.6017      167708.91      0.87150396     210.3574     
240000 325.3264 285.7945
240000 301.687547675966 220.884685885383 2999.2892303049698057 167708.905011064 0.87150396265892804415 29.301001239983598623 195.34000826655699257 216.24243301997600497
    240000   0.5            301.68755      220.88469      2999.2892      167708.91      0.87150396     216.24243    
244000 297.85786451078 -73.8002773754745 2999.2308640455498789 167708.905011064 0.87150396265892804415 29.301001239983598623 195.34000826655699257 219.13738342435701156
    244000   0.5            297.85786     -73.800277      2999.2309      167708.91      0.87150396     219.13738    
248000 300.670104305163 529.050980149926 2998.9213002628398499 167708.905011064 0.87150396265892804415 29.301001239983598623 195.34000826655699257 222.74248869188301114
    248000   0.5            300.6701       529.05098      2998.9213      167708.91      0.87150396     222.74249    
250000 319.6587 279.2668
252000 298.577743435037 -178.02645500483 2999.2329553137701623 167708.905011064 0.87150396265892804415 29.301001239983598623 195.34000826655699257 228.41826498066700424
    252000   0.5            298.57774     -178.02646      2999.233       167708.91      0.87150396     228.41826    
256000 297.212263826825 268.068868394596 2999.2821331300901875 167708.905011064 0.87150396265892804415 29.301001239983598623 195.34000826655699257 232.18311700940000719
    256000   0.5            297.21226      268.06887      2999.2821      167708.91      0.87150396     232.18312    
260000 313.6490 292.9364
260000 300.044165988723 -14.5657360374882 2999.2752781961398796 167708.905011064 0.87150396265892804415 29.301001239983598623 195.34000826655699257 235.99143098014599218
    260000   0.5            300.04417     -14.565736      2999.2753      167708.91      0.87150396     235.99143    
264000 297.944892715787 112.422831417687 2999.150086838939842 167708.905011064 0.87150396265892804415 29.301001239983598623 195.34000826655699257 239.35226568321098739
    264000   0.5            297.94489      112.42283      2999.1501      167708.91      0.87150396     239.35227    
268000 300.708185320911 125.463373130576 2999.1046144063498105 167708.905011064 0.87150396265892804415 29.301001239983598623 195.34000826655699257 242.96320288391899567
    268000   0.5            300.70819      125.46337      2999.1046      167708.91      0.87150396     242.9632     
270000 293.3866 292.4103
272000 300.193025311849 314.190504956063 2999.0656235519199981 167708.905011064 0.87150396265892804415 29.301001239983598623 195.34000826655699257 245.37101296537599637
    272000   0.5            300.19303      314.1905       2999.0656      167708.91      0.87150396     245.37101    
276000 300.110635490108 25.2554365725008 2998.8995805563499744 167708.905011064 0.87150396265892804415 29.301001239983598623 195.34000826655699257 248.43671745995300171
    276000   0.5            300.11064      25.255437      2998.8996      167708.91      0.87150396     248.43672    
280000 323.7764 285.4626
280000 298.672839865697 -190.112059812854 2999.1161386146900441 167708.905011064 0.87150396265892804415 29.301001239983598623 195.34000826655699257 251.39243014151898592
    280000   0.5            298.67284     -190.11206      2999.1161      167708.91      0.87150396     251.39243    
284000 299.87249661008 455.690296048443 2998.9395961606301171 167708.905011064 0.87150396265892804415 29.301001239983598623 195.34000826655699257 255.239881680009006
    284000   0.5            299.8725       455.6903       2998.9396      167708.91      0.87150396     255.23988    
288000 301.398223299701 432.036770092071 2998.8319331886800683 167708.905011064 0.87150396265892804415 29.301001239983598623 195.34000826655699257 258.6677905890629745
    288000   0.5            301.39822      432.03677      2998.8319      167708.91      0.87150396     258.66779    
290000 297.1001 271.8246
292000 300.778773863077 -488.496019525599 2998.7980714801701652 167708.905011064 0.87150396265892804415 29.301001239983598623 195.34000826655699257 261.75063692029499407
    292000   0.5            300.77877     -488.49602      2998.7981      167708.91      0.87150396     261.75064    
296000 301.647028928785 350.79605538086 2998.9499561007801276 167708.905011064 0.87150396265892804415 29.301001239983598623 195.34000826655699257 264.80714384088798852
    296000   0.5            301.64703      350.79606      2998.95        167708.91      0.87150396     264.80714    
300000 307.5816 270.7929
300000 300.786722425942 407.310533061036 2998.8411556963501425 167708.905011064 0.87150396265892804415 29.301001239983598623 195.34000826655699257 268.39925524346898555
    300000   0.5            300.78672      407.31053      2998.8412      167708.91      0.87150396     268.39926    
304000 299.217638748886 245.512390264473 2999.0814184104101514 167708.905011064 0.87150396265892804415 29.301001239983598623 195.34000826655699257 271.16003504358002374
    304000   0.5            299.21764      245.51239      2999.0814      167708.91      0.87150396     271.16004    
308000 300.493302721156 344.537748603406 2998.9029627243498908 167708.905011064 0.87150396265892804415 29.301001239983598623 195.34000826655699257 275.23239675148801098
    308000   0.5            300.4933       344.53775      2998.903       167708.91      0.87150396     275.2324     
310000 349.6868 276.0647
312000 301.974634463208 -472.645117197942 2998.7622948279099546 167708.905011064 0.87150396265892804415 29.301001239983598623 195.34000826655699257 278.80897600827802307
    312000   0.5            301.97463     -472.64512      2998.7623      167708.91      0.87150396     278.80898    
316000 301.014303993529 457.762285214596 2998.7826679369200065 167708.905011064 0.87150396265892804415 29.301001239983598623 195.34000826655699257 281.97146971890799705
    316000   0.5            301.0143       457.76229      2998.7827      167708.91      0.87150396     281.97147    
320000 344.7682 303.9129
320000 301.151775171 101.743286719646 2998.8965744029501366 167708.905011064 0.87150396265892804415 29.301001239983598623 195.34000826655699257 286.66118977532198642
    320000   0.5            301.15178      101.74329      2998.8966      167708.91      0.87150396     286.66119    
324000 302.584567839152 249.506303919956 2998.9272351598801833 167708.905011064 0.87150396265892804415 29.301001239983598623 195.34000826655699257 290.80033943038097277
    324000   0.5            302.58457      249.5063       2998.9272      167708.91      0.87150396     290.80034    
328000 297.226494296408 113.195010531254 2999.2366360906398768 167708.905011064 0.87150396265892804415 29.301001239983598623 195.34000826655699257 294.23921688778500538
    328000   0.5            297.22649      113.19501      2999.2366      167708.91      0.87150396     294.23922    
330000 314.5403 281.3824
332000 300.910284736023 1075.44360115654 2998.9698329986299541 167708.905011064 0.87150396265892804415 29.301001239983598623 195.34000826655699257 297.90568367938902838
    332000   0.5            300.91028      1075.4436      2998.9698      167708.91      0.87150396     297.90568    
336000 300.697259149029 394.323730882854 2999.3343235392198949 167708.905011064 0.87150396265892804415 29.301001239983598623 195.34000826655699257 300.79910365307699749
    336000   0.5            300.69726      394.32373      2999.3343      167708.91      0.87150396     300.7991     
340000 314.1879 294.5220
340000 297.969634666756 421.36103577052 2999.1953362146000472 167708.905011064 0.87150396265892804415 29.301001239983598623 195.34000826655699257 304.1984207399909792
    340000   0.5            297.96963      421.36104      2999.1953      167708.91      0.87150396     304.19842    
344000 296.771058077756 494.218641783389 2999.2466593659801219 167708.905011064 0.87150396265892804415 29.301001239983598623 195.34000826655699257 307.46653650488298126
    344000   0.5            296.77106      494.21864      2999.2467      167708.91      0.87150396     307.46654    
348000 298.769287441564 -24.4868164319455 2999.5488384390200736 167708.905011064 0.87150396265892804415 29.301001239983598623 195.34000826655699257 310.32477263490102359
    348000   0.5            298.76929     -24.486816      2999.5488      167708.91      0.87150396     310.32477    
350000 317.1341 276.6684
352000 298.612208550199 10.3217968332841 2999.4766648521899697 167708.905011064 0.87150396265892804415 29.301001239983598623 195.34000826655699257 314.90268751809998093
    352000   0.5            298.61221      10.321797      2999.4767      167708.91      0.87150396     314.90269    
356000 297.839585209848 50.7360020182182 2999.336577935349851 167708.905011064 0.87150396265892804415 29.301001239983598623 195.34000826655699257 318.45497214154499943
    356000   0.5            297.83959      50.736002      2999.3366      167708.91      0.87150396     318.45497    
360000 328.0389 282.4796
360000 300.764058817272 379.910663623229 2999.1400368450699716 167708.905011064 0.87150396265892804415 29.301001239983598623 195.34000826655699257 321.33090450437299523
    360000   0.5            300.76406      379.91066      2999.14        167708.91      0.87150396     321.3309     
364000 297.311904813958 254.756282886358 2999.0781398974399963 167708.905011064 0.87150396265892804415 29.301001239983598623 195.34000826655699257 323.94624365004102629
    364000   0.5            297.3119       254.75628      2999.0781      167708.91      0.87150396     323.94624    
368000 300.955646463475 -10.7923972593198 2999.1363862116900236 167708.905011064 0.87150396265892804415 29.301001239983598623 195.34000826655699257 326.48457988628899784
    368000   0.5            300.95565     -10.792397      2999.1364      167708.91      0.87150396     326.48458    
370000 318.2982 266.6119
372000 299.430708948605 -172.040125193476 2999.4089156086902221 167708.905011064 0.87150396265892804415 29.301001239983598623 195.34000826655699257 329.56518425589899834
    372000   0.5            299.43071     -172.04013      2999.4089      167708.91      0.87150396     329.56518    
376000 295.820034725231 657.246050239021 2999.3815746206000767 167708.905011064 0.87150396265892804415 29.301001239983598623 195.34000826655699257 332.59506595085798608
    376000   0.5            295.82003      657.24605      2999.3816      167708.91      0.87150396     332.59507    
380000 311.7639 268.6550
380000 299.233372159059 222.020413855554 2999.1936764555598529 167708.905011064 0.87150396265892804415 29.301001239983598623 195.34000826655699257 335.48309230941600845
    380000   0.5            299.23337      222.02041      2999.1937      167708.91      0.87150396     335.48309    
384000 301.980481142911 70.7026804544702 2998.9444397664901771 167708.905011064 0.87150396265892804415 29.301001239983598623 195.34000826655699257 338.56976264718997527
    384000   0.5            301.98048      70.70268       2998.9444      167708.91      0.87150396     338.56976    
388000 294.64520028943 506.346527060564 2999.1606145764199027 167708.905011064 0.87150396265892804415 29.301001239983598623 195.34000826655699257 341.61677207127797828
    388000   0.5            294.6452       506.34653      2999.1606      167708.91      0.87150396     341.61677    
390000 330.9107 259.2964
392000 300.561889672508 23.83044703344 2999.0416630544600594 167708.905011064 0.87150396265892804415 29.301001239983598623 195.34000826655699257 344.21108289697798455
    392000   0.5            300.56189      23.830447      2999.0417      167708.91      0.87150396     344.21108    
396000 300.910441624535 395.962003028267 2999.1255821757499689 167708.905011064 0.87150396265892804415 29.301001239983598623 195.34000826655699257 346.94705670314499457
    396000   0.5            300.91044      395.962        2999.1256      167708.91      0.87150396     346.94706    
400000 336.6479 276.3424
400000 302.640362139768 267.157736959272 2998.8443251294897891 167708.905011064 0.87150396265892804415 29.301001239983598623 195.34000826655699257 350.50967818510702045
    400000   0.5            302.64036      267.15774      2998.8443      167708.91      0.87150396     350.50968    
404000 302.748196164302 -123.455216403821 2998.657044544710061 167708.905011064 0.87150396265892804415 29.301001239983598623 195.34000826655699257 353.59883346993200348
    404000   0.5            302.7482      -123.45522      2998.657       167708.91      0.87150396     353.59883    
408000 300.364566521065 842.66320243516 2998.8660359612299544 167708.905011064 0.87150396265892804415 29.301001239983598623 195.34000826655699257 356.20254524200100832
    408000   0.5            300.36457      842.6632       2998.866       167708.91      0.87150396     356.20255    
410000 322.7952 284.6923
412000 296.461402041289 325.671274776003 2999.0328222622301837 167708.905011064 0.87150396265892804415 29.301001239983598623 195.34000826655699257 359.6234952045400064
    412000   0.5            296.4614       325.67127      2999.0328      167708.91      0.87150396     359.6235     
416000 298.630947242046 323.567657221339 2999.1393007272599789 167708.905011064 0.87150396265892804415 29.301001239983598623 195.34000826655699257 363.40519757169801096
    416000   0.5            298.63095      323.56766      2999.1393      167708.91      0.87150396     363.4052     
420000 329.7142 270.4573
420000 301.140679015221 -149.958628298302 2999.1343090237901379 167708.905011064 0.87150396265892804415 29.301001239983598623 195.34000826655699257 366.25579637669898148
    420000   0.5            301.14068     -149.95863      2999.1343      167708.91      0.87150396     366.2558     
424000 297.904695315371 -104.443277699509 2999.2303788747399267 167708.905011064 0.87150396265892804415 29.301001239983598623 195.34000826655699257 369.98594561259699276
    424000   0.5            297.9047      -104.44328      2999.2304      167708.91      0.87150396     369.98595    
428000 301.926635419118 -391.938678137444 2998.9401330191999477 167708.905011064 0.87150396265892804415 29.301001239983598623 195.34000826655699257 374.41158228527098117
    428000   0.5            301.92664     -391.93868      2998.9401      167708.91      0.87150396     374.41158    
430000 338.0400 283.4520
432000 298.542001749951 411.320519557908 2998.9829798011001003 167708.905011064 0.87150396265892804415 29.301001239983598623 195.34000826655699257 377.55951890980202279
    432000   0.5            298.542        411.32052      2998.983       167708.91      0.87150396     377.55952    
436000 300.448075678179 41.9806636283204 2998.8629831952498535 167708.905011064 0.87150396265892804415 29.301001239983598623 195.34000826655699257 380.54857948763299191
    436000   0.5            300.44808      41.980664      2998.863       167708.91      0.87150396     380.54858    
440000 331.0227 280.5906
440000 302.923779709268 -19.2315716303315 2998.8661297773701335 167708.905011064 0.87150396265892804415 29.301001239983598623 195.34000826655699257 383.37313079868499699
    440000   0.5            302.92378     -19.231572      2998.8661      167708.91      0.87150396     383.37313    
444000 301.666109645398 944.504770888699 2998.937240221439879 167708.905011064 0.87150396265892804415 29.301001239983598623 195.34000826655699257 387.43117209322997496
    444000   0.5            301.66611      944.50477      2998.9372      167708.91      0.87150396     387.43117    
448000 299.196067718401 -296.370733640823 2999.0109846226000627 167708.905011064 0.87150396265892804415 29.301001239983598623 195.34000826655699257 391.28863149550500111
    448000   0.5            299.19607     -296.37073      2999.011       167708.91      0.87150396     391.28863    
450000 335.8682 277.0364
452000 300.19567313586 190.78085504807 2999.1975660107100339 167708.905011064 0.87150396265892804415 29.301001239983598623 195.34000826655699257 393.87347429181602365
    452000   0.5            300.19567      190.78086      2999.1976      167708.91      0.87150396     393.87347    
456000 298.866609601918 -218.670689814443 2999.0682516180600032 167708.905011064 0.87150396265892804415 29.301001239983598623 195.34000826655699257 396.59362641973302743
    456000   0.5            298.86661     -218.67069      2999.0683      167708.91      0.87150396     396.59363    
460000 310.7804 269.7085
460000 304.329842485069 200.042754021645 2998.7785900549301914 167708.905011064 0.87150396265892804415 29.301001239983598623 195.34000826655699257 400.0415964254290202
    460000   0.5            304.32984      200.04275      2998.7786      167708.91      0.87150396     400.0416     
464000 304.229735829187 448.050202337323 2998.7707508522798889 167708.905011064 0.87150396265892804415 29.301001239983598623 195.34000826655699257 404.33961999845001856
    464000   0.5            304.22974      448.0502       2998.7708      167708.91      0.87150396     404.33962    
468000 297.910214775501 623.039412834403 2998.9776625311201315 167708.905011064 0.87150396265892804415 29.301001239983598623 195.34000826655699257 408.48519195055501996
    468000   0.5            297.91021      623.03941      2998.9777      167708.91      0.87150396     408.48519    
470000 322.6255 275.1754
472000 298.515007313761 593.103722331355 2999.1043287731099554 167708.905011064 0.87150396265892804415 29.301001239983598623 195.34000826655699257 411.3749930423300043
    472000   0.5            298.51501      593.10372      2999.1043      167708.91      0.87150396     411.37499    
476000 300.641889318778 -323.092118681061 2999.2487905719999617 167708.905011064 0.87150396265892804415 29.301001239983598623 195.34000826655699257 415.14282867103497665
    476000   0.5            300.64189     -323.09212      2999.2488      167708.91      0.87150396     415.14283    
480000 345.5373 280.2331
480000 298.531407768996 -314.247295366396 2999.347040587959782 167708.905011064 0.87150396265892804415 29.301001239983598623 195.34000826655699257 419.73499629932098287
    480000   0.5            298.53141     -314.2473       2999.347       167708.91      0.87150396     419.735      
484000 301.776448243301 -55.8085200681454 2999.2391094809399874 167708.905011064 0.87150396265892804415 29.301001239983598623 195.34000826655699257 423.32224288557597447
    484000   0.5            301.77645     -55.80852       2999.2391      167708.91      0.87150396     423.32224    
488000 298.162571051504 78.1542039331545 2999.1035406644200521 167708.905011064 0.87150396265892804415 29.301001239983598623 195.34000826655699257 426.5806077066200146
    488000   0.5            298.16257      78.154204      2999.1035      167708.91      0.87150396     426.58061    
490000 330.7002 277.7086
492000 299.551131991791 -154.285515084944 2999.2272096616497947 167708.905011064 0.87150396265892804415 29.301001239983598623 195.34000826655699257 430.14894734675198151
    492000   0.5            299.55113     -154.28552      2999.2272      167708.91      0.87150396     430.14895    
496000 300.818759488759 171.363624603927 2999.1956681594301699 167708.905011064 0.87150396265892804415 29.301001239983598623 195.34000826655699257 434.77969805756799815
    496000   0.5            300.81876      171.36362      2999.1957      167708.91      0.87150396     434.7797     
500000 344.2547 285.6094
500000 301.771356615527 281.901364330634 2999.2578916618399489 167708.905011064 0.87150396265892804415 29.301001239983598623 195.34000826655699257 438.43574405334101129
    500000   0.5            301.77136      281.90136      2999.2579      167708.91      0.87150396     438.43574    
504000 300.321905976375 -811.877394208627 2999.4427202560200385 167708.905011064 0.87150396265892804415 29.301001239983598623 195.34000826655699257 441.40461501194602079
    504000   0.5            300.32191     -811.87739      2999.4427      167708.91      0.87150396     441.40462    
508000 298.510736282277 -631.755411728811 2999.2633754969201618 167708.905011064 0.87150396265892804415 29.301001239983598623 195.34000826655699257 445.66080506333298672
    508000   0.5            298.51074     -631.75541      2999.2634      167708.91      0.87150396     445.66081    
510000 320.4208 287.2721
512000 302.384112688053 58.6339029074208 2999.2932134014799885 167708.905011064 0.87150396265892804415 29.301001239983598623 195.34000826655699257 450.68602567376700563
    512000   0.5            302.38411      58.633903      2999.2932      167708.91      0.87150396     450.68603    
516000 302.117601672693 -204.663976126673 2999.2104351101202155 167708.905011064 0.87150396265892804415 29.301001239983598623 195.34000826655699257 454.29680205955202155
    516000   0.5            302.1176      -204.66398      2999.2104      167708.91      0.87150396     454.2968     
520000 324.4169 280.6147
520000 299.25928073328 152.261565119223 2999.2887240482600646 167708.905011064 0.87150396265892804415 29.301001239983598623 195.34000826655699257 457.05300995972402234
    520000   0.5            299.25928      152.26157      2999.2887      167708.91      0.87150396     457.05301    
524000 298.693955646892 421.133467810465 2999.4150770160999855 167708.905011064 0.87150396265892804415 29.301001239983598623 195.34000826655699257 459.70552631595597859
    524000   0.5            298.69396      421.13347      2999.4151      167708.91      0.87150396     459.70553    
528000 303.928275656283 -372.12119315582 2999.5007056020699565 167708.905011064 0.87150396265892804415 29.301001239983598623 195.34000826655699257 462.86456149894502232
    528000   0.5            303.92828     -372.12119      2999.5007      167708.91      0.87150396     462.86456    
530000 336.0919 293.7872
532000 296.480774395987 -684.601107314644 2999.6147097982998275 167708.905011064 0.87150396265892804415 29.301001239983598623 195.34000826655699257 465.73686259432497536
    532000   0.5            296.48077     -684.60111      2999.6147      167708.91      0.87150396     465.73686    
536000 300.094412656701 -83.0426224156211 2999.5354762166098226 167708.905011064 0.87150396265892804415 29.301001239983598623 195.34000826655699257 469.15741073130300265
    536000   0.5            300.09441     -83.042622      2999.5355      167708.91      0.87150396     469.15741    
540000 311.6537 270.1641
540000 298.345270001922 -44.7842685753294 2999.5290592077399197 167708.905011064 0.87150396265892804415 29.301001239983598623 195.34000826655699257 472.49252265699698228
    540000   0.5            298.34527     -44.784269      2999.5291      167708.91      0.87150396     472.49252    
544000 298.681379708904 297.936048441398 2999.3183792176000679 167708.905011064 0.87150396265892804415 29.301001239983598623 195.34000826655699257 475.33550393067400819
    544000   0.5            298.68138      297.93605      2999.3184      167708.91      0.87150396     475.3355     
548000 300.741551621183 196.827075205695 2999.334864959369952 167708.905011064 0.87150396265892804415 29.301001239983598623 195.34000826655699257 480.32320232271797522
    548000   0.5            300.74155      196.82708      2999.3349      167708.91      0.87150396     480.3232     
550000 319.4422 287.1557
552000 299.275840412907 130.69647252195 2999.4332269190299485 167708.905011064 0.87150396265892804415 29.301001239983598623 195.34000826655699257 482.86259557357101357
    552000   0.5            299.27584      130.69647      2999.4332      167708.91      0.87150396     482.8626     
556000 300.351756380954 -245.085232527374 2999.4301733416700699 167708.905011064 0.87150396265892804415 29.301001239983598623 195.34000826655699257 486.2413524268329752
    556000   0.5            300.35176     -245.08523      2999.4302      167708.91      0.87150396     486.24135    
560000 331.2273 286.9102
560000 305.624997620576 64.6032285892175 2999.3498012068798744 167708.905011064 0.87150396265892804415 29.301001239983598623 195.34000826655699257 490.53560224172298376
    560000   0.5            305.625        64.603229      2999.3498      167708.91      0.87150396     490.5356     
564000 299.209346790839 441.189173857457 2999.5725607470399154 167708.905011064 0.87150396265892804415 29.301001239983598623 195.34000826655699257 493.76055196818799686
    564000   0.5            299.20935      441.18917      2999.5726      167708.91      0.87150396     493.76055    
568000 303.08625258893 375.882132645872 2999.3988868319997891 167708.905011064 0.87150396265892804415 29.301001239983598623 195.34000826655699257 496.26554123518798178
    568000   0.5            303.08625      375.88213      2999.3989      167708.91      0.87150396     496.26554    
570000 314.6325 279.5162
572000 299.405444323093 924.09492811286 2999.5025953550098166 167708.905011064 0.87150396265892804415 29.301001239983598623 195.34000826655699257 498.84987890019698398
    572000   0.5            299.40544      924.09493      2999.5026      167708.91      0.87150396     498.84988    
576000 298.744653863143 138.624935577776 2999.3669287289499152 167708.905011064 0.87150396265892804415 29.301001239983598623 195.34000826655699257 501.06896369315199991
    576000   0.5            298.74465      138.62494      2999.3669      167708.91      0.87150396     501.06896    
580000 324.8199 268.3886
580000 301.035129521409 205.695713351358 2999.5927503535799588 167708.905011064 0.87150396265892804415 29.301001239983598623 195.34000826655699257 504.08712936653597581
    580000   0.5            301.03513      205.69571      2999.5928      167708.91      0.87150396     504.08713    
584000 301.708020875736 668.16049899172 2999.5137948734400197 167708.905011064 0.87150396265892804415 29.301001239983598623 195.34000826655699257 507.40828804958397313
    584000   0.5            301.70802      668.1605       2999.5138      167708.91      0.87150396     507.40829    
588000 300.118562891446 547.115475352006 2999.8172223995898094 167708.905011064 0.87150396265892804415 29.301001239983598623 195.34000826655699257 510.63673486369100374
    588000   0.5            300.11856      547.11548      2999.8172      167708.91      0.87150396     510.63673    
590000 323.6454 270.7539
592000 300.599819112469 9.29412632796607 2999.7730011358898992 167708.905011064 0.87150396265892804415 29.301001239983598623 195.34000826655699257 514.68316200086098888
    592000   0.5            300.59982      9.2941263      2999.773       167708.91      0.87150396     514.68316    
596000 296.300756096534 533.803062795638 3000.0637167783202131 167708.905011064 0.87150396265892804415 29.301001239983598623 195.34000826655699257 517.34924506352501794
    596000   0.5            296.30076      533.80306      3000.0637      167708.91      0.87150396     517.34925    
600000 341.1678 279.7782
600000 302.094510048972 90.1184868452154 2999.8000461984402136 167708.905011064 0.87150396265892804415 29.301001239983598623 195.34000826655699257 520.77525755862598089
    600000   0.5            302.09451      90.118487      2999.8         167708.91      0.87150396     520.77526    
604000 298.745116025046 -422.497838870914 2999.7638261678898743 167708.905011064 0.87150396265892804415 29.301001239983598623 195.34000826655699257 525.63529782721900574
    604000   0.5            298.74512     -422.49784      2999.7638      167708.91      0.87150396     525.6353     
608000 299.673094422138 113.958365432062 2999.7783274491798693 167708.905011064 0.87150396265892804415 29.301001239983598623 195.34000826655699257 528.84334029075398576
    608000   0.5            299.67309      113.95837      2999.7783      167708.91      0.87150396     528.84334    
610000 331.9810 270.4067
612000 301.551048557401 474.707269521715 2999.6387742267797876 167708.905011064 0.87150396265892804415 29.301001239983598623 195.34000826655699257 532.98559662846298579
    612000   0.5            301.55105      474.70727      2999.6388      167708.91      0.87150396     532.9856     
616000 301.757141419333 65.5005951059064 2999.4672519518699119 167708.905011064 0.87150396265892804415 29.301001239983598623 195.34000826655699257 536.27813234288305466
    616000   0.5            301.75714      65.500595      2999.4673      167708.91      0.87150396     536.27813    
620000 346.5283 277.9354
620000 304.353629721378 434.998274872975 2999.2569436419398698 167708.905011064 0.87150396265892804415 29.301001239983598623 195.34000826655699257 539.09127768628002286
    620000   0.5            304.35363      434.99827      2999.2569      167708.91      0.87150396     539.09128    
624000 303.397534781739 174.757407729966 2999.0735008828701211 167708.905011064 0.87150396265892804415 29.301001239983598623 195.34000826655699257 542.10375189649198546
    624000   0.5            303.39753      174.75741      2999.0735      167708.91      0.87150396     542.10375    
628000 297.904474117192 558.287201624253 2999.4431690904398238 167708.905011064 0.87150396265892804415 29.301001239983598623 195.34000826655699257 545.52880943499201294
    628000   0.5            297.90447      558.2872       2999.4432      167708.91      0.87150396     545.52881    
630000 330.6859 271.7068
632000 303.401333784502 -11.5483852164816 2999.6333873465300712 167708.905011064 0.87150396265892804415 29.301001239983598623 195.34000826655699257 550.23154716713804646
    632000   0.5            303.40133     -11.548385      2999.6334      167708.91      0.87150396     550.23155    
636000 299.552381824783 54.4124610302172 2999.7507890947399574 167708.905011064 0.87150396265892804415 29.301001239983598623 195.34000826655699257 552.90918228165503479
    636000   0.5            299.55238      54.412461      2999.7508      167708.91      0.87150396     552.90918    
640000 341.3854 268.6747
640000 294.777660036599 365.631275282172 3000.0237338165798064 167708.905011064 0.87150396265892804415 29.301001239983598623 195.34000826655699257 555.13502940720195511
    640000   0.5            294.77766      365.63128      3000.0237      167708.91      0.87150396     555.13503    
644000 293.961078823031 -546.150782849181 3000.1827840043501965 167708.905011064 0.87150396265892804415 29.301001239983598623 195.34000826655699257 559.14968235950505004
    644000   0.5            293.96108     -546.15078      3000.1828      167708.91      0.87150396     559.14968    
648000 299.384895441156 58.2025644557153 2999.8753319956499581 167708.905011064 0.87150396265892804415 29.301001239983598623 195.34000826655699257 561.53108391022999513
    648000   0.5            299.3849       58.202564      2999.8753      167708.91      0.87150396     561.53108    
650000 350.6920 274.5110
652000 297.349761852536 221.896514823716 2999.6750427840302109 167708.905011064 0.87150396265892804415 29.301001239983598623 195.34000826655699257 564.05136729008700058
    652000   0.5            297.34976      221.89651      2999.675       167708.91      0.87150396     564.05137    
656000 303.945721027476 212.787257435098 2999.656689498689957 167708.905011064 0.87150396265892804415 29.301001239983598623 195.34000826655699257 566.92325955293699735
    656000   0.5            303.94572      212.78726      2999.6567      167708.91      0.87150396     566.92326    
660000 346.3112 275.3453
660000 297.704601017615 -319.572292319923 2999.9402993089602205 167708.905011064 0.87150396265892804415 29.301001239983598623 195.34000826655699257 571.0503920200679886
    660000   0.5            297.7046      -319.57229      2999.9403      167708.91      0.87150396     571.05039    
664000 298.349451100564 -79.790958116887 2999.774686148210094 167708.905011064 0.87150396265892804415 29.301001239983598623 195.34000826655699257 574.31305027553605669
    664000   0.5            298.34945     -79.790958      2999.7747      167708.91      0.87150396     574.31305    
668000 302.322730685941 111.590075214367 2999.6788703362499291 167708.905011064 0.87150396265892804415 29.301001239983598623 195.34000826655699257 577.78442508899297536
    668000   0.5            302.32273      111.59008      2999.6789      167708.91      0.87150396     577.78443    
670000 329.5932 282.6107
672000 304.422289946865 286.662666036927 2999.7223042437599361 167708.905011064 0.87150396265892804415 29.301001239983598623 195.34000826655699257 581.04656339136101906
    672000   0.5            304.42229      286.66267      2999.7223      167708.91      0.87150396     581.04656    
676000 301.565442183163 234.848810710944 2999.7320007994198932 167708.905011064 0.87150396265892804415 29.301001239983598623 195.34000826655699257 584.15649306877003255
    676000   0.5            301.56544      234.84881      2999.732       167708.91      0.87150396     584.15649    
680000 328.2166 276.4971
680000 299.124388912824 -4.02858125285071 2999.6176897908499086 167708.905011064 0.87150396265892804415 29.301001239983598623 195.34000826655699257 588.7155787223630341
    680000   0.5            299.12439     -4.0285813      2999.6177      167708.91      0.87150396     588.71558    
684000 301.867243917661 844.830484707381 2999.607056579140135 167708.905011064 0.87150396265892804415 29.301001239983598623 195.34000826655699257 591.67530015988495506
    684000   0.5            301.86724      844.83048      2999.6071      167708.91      0.87150396     591.6753     
688000 302.410218998733 -183.531744006133 2999.4373724496799696 167708.905011064 0.87150396265892804415 29.301001239983598623 195.34000826655699257 595.78481790033697507
    688000   0.5            302.41022     -183.53174      2999.4374      167708.91      0.87150396     595.78482    
690000 332.5343 286.6257
692000 304.081803009365 411.689919620768 2999.2509830249000515 167708.905011064 0.87150396265892804415 29.301001239983598623 195.34000826655699257 600.64906093057095404
    692000   0.5            304.0818       411.68992      2999.251       167708.91      0.87150396     600.64906    
696000 302.5831215239 261.778853383659 2999.413377674649837 167708.905011064 0.87150396265892804415 29.301001239983598623 195.34000826655699257 604.38268289255199761
    696000   0.5            302.58312      261.77885      2999.4134      167708.91      0.87150396     604.38268    
700000 327.7074 273.6851
700000 298.502080309174 278.34002268636 2999.4398159182401287 167708.905011064 0.87150396265892804415 29.301001239983598623 195.34000826655699257 606.7493967346390491
    700000   0.5            298.50208      278.34002      2999.4398      167708.91      0.87150396     606.7494     
704000 302.019884703641 116.236610184091 2999.5728398201899836 167708.905011064 0.87150396265892804415 29.301001239983598623 195.34000826655699257 609.66592589245794898
    704000   0.5            302.01988      116.23661      2999.5728      167708.91      0.87150396     609.66593    
708000 300.063592156596 530.36339497286 2999.7031802661399524 167708.905011064 0.87150396265892804415 29.301001239983598623 195.34000826655699257 613.63378867455401178
    708000   0.5            300.06359      530.36339      2999.7032      167708.91      0.87150396     613.63379    
710000 336.4376 274.7645
712000 301.130187472684 399.998630518439 2999.6439629370997864 167708.905011064 0.87150396265892804415 29.301001239983598623 195.34000826655699257 617.9965646754020554
    712000   0.5            301.13019      399.99863      2999.644       167708.91      0.87150396     617.99656    
716000 302.201671359724 -445.071839854329 2999.88000934674983 167708.905011064 0.87150396265892804415 29.301001239983598623 195.34000826655699257 621.86167733946399494
    716000   0.5            302.20167     -445.07184      2999.88        167708.91      0.87150396     621.86168    
720000 363.7110 267.9193
720000 300.866998387124 237.128058652059 2999.7717182214801142 167708.905011064 0.87150396265892804415 29.301001239983598623 195.34000826655699257 624.96710876160500447
    720000   0.5            300.867        237.12806      2999.7717      167708.91      0.87150396     624.96711    
724000 300.859087659861 42.5789680698197 2999.5155023414499738 167708.905011064 0.87150396265892804415 29.301001239983598623 195.34000826655699257 629.09399262484896553
    724000   0.5            300.85909      42.578968      2999.5155      167708.91      0.87150396     629.09399    
728000 299.127130445199 646.957118302238 2999.8468340545300634 167708.905011064 0.87150396265892804415 29.301001239983598623 195.34000826655699257 632.69221495771705577
    728000   0.5            299.12713      646.95712      2999.8468      167708.91      0.87150396     632.69221    
730000 335.9464 256.9923
732000 297.14550008077 -215.656962255025 2999.848561379630155 167708.905011064 0.87150396265892804415 29.301001239983598623 195.34000826655699257 636.89618030544397698
    732000   0.5            297.1455      -215.65696      2999.8486      167708.91      0.87150396     636.89618    
736000 299.782729133512 -86.3621997766569 3000.2006329973701213 167708.905011064 0.87150396265892804415 29.301001239983598623 195.34000826655699257 640.01189203482704215
    736000   0.5            299.78273     -86.3622        3000.2006      167708.91      0.87150396     640.01189    
740000 344.5179 270.0513
740000 300.095888428078 339.94866248022 3000.1691095934597797 167708.905011064 0.87150396265892804415 29.301001239983598623 195.34000826655699257 643.13600200158600728
    740000   0.5            300.09589      339.94866      3000.1691      167708.91      0.87150396     643.136      
744000 299.409255897704 414.672603136136 2999.9183731211401209 167708.905011064 0.87150396265892804415 29.301001239983598623 195.34000826655699257 646.47669040222103831
    744000   0.5            299.40926      414.6726       2999.9184      167708.91      0.87150396     646.47669    
748000 300.077854272583 338.544510906226 3000.2195555665298343 167708.905011064 0.87150396265892804415 29.301001239983598623 195.34000826655699257 649.49557577003599818
    748000   0.5            300.07785      338.54451      3000.2196      167708.91      0.87150396     649.49558    
750000 350.6365 270.5739
752000 298.917345515101 401.163336689729 3000.0889583159801077 167708.905011064 0.87150396265892804415 29.301001239983598623 195.34000826655699257 652.25933347532395601
    752000   0.5            298.91735      401.16334      3000.089       167708.91      0.87150396     652.25933    
756000 295.674359670262 318.863246089399 3000.3957749274500202 167708.905011064 0.87150396265892804415 29.301001239983598623 195.34000826655699257 655.09260437511795772
    756000   0.5            295.67436      318.86325      3000.3958      167708.91      0.87150396     655.0926     
760000 359.1826 267.7529
760000 301.188862372702 989.238453455465 3000.1593912568500855 167708.905011064 0.87150396265892804415 29.301001239983598623 195.34000826655699257 658.9984385757900327
    760000   0.5            301.18886      989.23845      3000.1594      167708.91      0.87150396     658.99844    
764000 300.976566266124 406.91472369177 3000.0727265422601704 167708.905011064 0.87150396265892804415 29.301001239983598623 195.34000826655699257 661.69655900865200238
    764000   0.5            300.97657      406.91472      3000.0727      167708.91      0.87150396     661.69656    
768000 300.07812523272 -349.923254682456 3000.1540719404802076 167708.905011064 0.87150396265892804415 29.301001239983598623 195.34000826655699257 664.34834781363599632
    768000   0.5            300.07813     -349.92325      3000.1541      167708.91      0.87150396     664.34835    
770000 348.7803 265.1598
772000 304.235439778452 -500.794418833547 2999.781173626960026 167708.905011064 0.87150396265892804415 29.301001239983598623 195.34000826655699257 667.17357255149795492
    772000   0.5            304.23544     -500.79442      2999.7812      167708.91      0.87150396     667.17357    
776000 303.47059651344 403.16238540965 2999.6428379947901703 167708.905011064 0.87150396265892804415 29.301001239983598623 195.34000826655699257 670.44386951319404488
    776000   0.5            303.4706       403.16239      2999.6428      167708.91      0.87150396     670.44387    
780000 347.0450 271.9132
780000 300.443514745569 177.334337908359 2999.7640448146898962 167708.905011064 0.87150396265892804415 29.301001239983598623 195.34000826655699257 673.79615045294497122
    780000   0.5            300.44351      177.33434      2999.764       167708.91      0.87150396     673.79615    
784000 302.513871335848 -317.861492883758 2999.7012411138898642 167708.905011064 0.87150396265892804415 29.301001239983598623 195.34000826655699257 678.08774384934099544
    784000   0.5            302.51387     -317.86149      2999.7012      167708.91      0.87150396     678.08774    
788000 301.788363759257 403.002971136595 2999.8864862890600307 167708.905011064 0.87150396265892804415 29.301001239983598623 195.34000826655699257 682.56030435749403296
    788000   0.5            301.78836      403.00297      2999.8865      167708.91      0.87150396     682.5603     
790000 356.8830 272.4256
792000 300.047767158683 790.50292833322 2999.9236971061100121 167708.905011064 0.87150396265892804415 29.301001239983598623 195.34000826655699257 687.09900323194096927
    792000   0.5            300.04777      790.50293      2999.9237      167708.91      0.87150396     687.099      
796000 299.909092074231 -305.52198393461 3000.0062525457701668 167708.905011064 0.87150396265892804415 29.301001239983598623 195.34000826655699257 689.89903913296598148
    796000   0.5            299.90909     -305.52198      3000.0063      167708.91      0.87150396     689.89904    
800000 356.0318 255.0863
800000 300.028532149248 52.6799188739877 3000.156443415080048 167708.905011064 0.87150396265892804415 29.301001239983598623 195.34000826655699257 694.55787200327404207
    800000   0.5            300.02853      52.679919      3000.1564      167708.91      0.87150396     694.55787    
804000 301.022402786702 -173.493200679878 3000.2151088231998983 167708.905011064 0.87150396265892804415 29.301001239983598623 195.34000826655699257 697.68846372685698043
    804000   0.5            301.0224      -173.4932       3000.2151      167708.91      0.87150396     697.68846    
808000 300.567246589098 344.745688884979 2999.9983273694301715 167708.905011064 0.87150396265892804415 29.301001239983598623 195.34000826655699257 701.15526453701204446
    808000   0.5            300.56725      344.74569      2999.9983      167708.91      0.87150396     701.15526    
810000 348.5546 261.9790
812000 301.164970014616 -280.060300449393 2999.8912058739601889 167708.905011064 0.87150396265892804415 29.301001239983598623 195.34000826655699257 704.32636806439302291
    812000   0.5            301.16497     -280.0603       2999.8912      167708.91      0.87150396     704.32637    
816000 298.419035332111 237.769568293866 2999.9924720321300811 167708.905011064 0.87150396265892804415 29.301001239983598623 195.34000826655699257 709.02116135344294889
    816000   0.5            298.41904      237.76957      2999.9925      167708.91      0.87150396     709.02116    
820000 349.8490 260.1741
820000 303.448045978839 -236.59454131595 2999.7419221922400538 167708.905011064 0.87150396265892804415 29.301001239983598623 195.34000826655699257 711.82529221212701032
    820000   0.5            303.44805     -236.59454      2999.7419      167708.91      0.87150396     711.82529    
824000 300.828657165354 -345.012788064726 2999.8494068619897917 167708.905011064 0.87150396265892804415 29.301001239983598623 195.34000826655699257 714.55206287448595504
    824000   0.5            300.82866     -345.01279      2999.8494      167708.91      0.87150396     714.55206    
828000 300.156157855773 21.8615698665805 2999.8479779954800506 167708.905011064 0.87150396265892804415 29.301001239983598623 195.34000826655699257 716.84412881664900397
    828000   0.5            300.15616      21.86157       2999.848       167708.91      0.87150396     716.84413    
830000 345.3141 260.0899
832000 299.529210817425 -101.447359530306 3000.169884605939842 167708.905011064 0.87150396265892804415 29.301001239983598623 195.34000826655699257 720.84174865477200456
    832000   0.5            299.52921     -101.44736      3000.1699      167708.91      0.87150396     720.84175    
836000 299.424910794999 373.032249651516 3000.0244724738299738 167708.905011064 0.87150396265892804415 29.301001239983598623 195.34000826655699257 723.17533180756402089
    836000   0.5            299.42491      373.03225      3000.0245      167708.91      0.87150396     723.17533    
840000 359.6677 260.9120
840000 302.952561076221 -455.597281028842 2999.8777770683900599 167708.905011064 0.87150396265892804415 29.301001239983598623 195.34000826655699257 727.01636559566804863
    840000   0.5            302.95256     -455.59728      2999.8778      167708.91      0.87150396     727.01637    
844000 300.836330585493 -35.4597576244923 2999.9542075573799593 167708.905011064 0.87150396265892804415 29.301001239983598623 195.34000826655699257 732.52506039202501142
    844000   0.5            300.83633     -35.459758      2999.9542      167708.91      0.87150396     732.52506    
848000 299.178552726199 -564.296212001936 2999.7738078307797878 167708.905011064 0.87150396265892804415 29.301001239983598623 195.34000826655699257 735.32753122252597677
    848000   0.5            299.17855     -564.29621      2999.7738      167708.91      0.87150396     735.32753    
850000 349.4569 263.4811
852000 302.649903654457 769.005170504837 2999.6793594731598205 167708.905011064 0.87150396265892804415 29.301001239983598623 195.34000826655699257 740.68083497975896989
    852000   0.5            302.6499       769.00517      2999.6794      167708.91      0.87150396     740.68083    
856000 300.992673083413 658.895791912137 2999.611298974390138 167708.905011064 0.87150396265892804415 29.301001239983598623 195.34000826655699257 744.00106519493897395
    856000   0.5            300.99267      658.89579      2999.6113      167708.91      0.87150396     744.00107    
860000 365.2323 255.5085
860000 299.379219529108 226.853821577162 2999.7173369161100709 167708.905011064 0.87150396265892804415 29.301001239983598623 195.34000826655699257 747.80894332265995672
    860000   0.5            299.37922      226.85382      2999.7173      167708.91      0.87150396     747.80894    
864000 299.462442063636 -99.6463366742086 2999.8729667830598373 167708.905011064 0.87150396265892804415 29.301001239983598623 195.34000826655699257 751.37018510497705392
    864000   0.5            299.46244     -99.646337      2999.873       167708.91      0.87150396     751.37019    
868000 301.359675123258 242.115737869005 3000.1221469671700106 167708.905011064 0.87150396265892804415 29.301001239983598623 195.34000826655699257 754.22023215254398565
    868000   0.5            301.35968      242.11574      3000.1221      167708.91      0.87150396     754.22023    
870000 355.6341 269.3697
872000 299.916651214389 112.090280888447 3000.0741988474101163 167708.905011064 0.87150396265892804415 29.301001239983598623 195.34000826655699257 757.35044806276903273
    872000   0.5            299.91665      112.09028      3000.0742      167708.91      0.87150396     757.35045    
876000 298.162596685797 -104.789731403853 3000.2032675369000572 167708.905011064 0.87150396265892804415 29.301001239983598623 195.34000826655699257 760.93680726079799115
    876000   0.5            298.1626      -104.78973      3000.2033      167708.91      0.87150396     760.93681    
880000 335.4454 273.8848
880000 300.401043853557 -249.340722966358 3000.2593326505498226 167708.905011064 0.87150396265892804415 29.301001239983598623 195.34000826655699257 764.55827538510698105
    880000   0.5            300.40104     -249.34072      3000.2593      167708.91      0.87150396     764.55828    
884000 299.67777968167 375.639221384586 3000.086198669229816 167708.905011064 0.87150396265892804415 29.301001239983598623 195.34000826655699257 767.64683546015203319
    884000   0.5            299.67778      375.63922      3000.0862      167708.91      0.87150396     767.64684    
888000 300.711162508761 -325.101155387532 3000.0407498688000487 167708.905011064 0.87150396265892804415 29.301001239983598623 195.34000826655699257 771.81092254449595202
    888000   0.5            300.71116     -325.10116      3000.0407      167708.91      0.87150396     771.81092    
890000 316.2488 260.8140
892000 300.637855150175 159.661013436178 3000.0051149815999452 167708.905011064 0.87150396265892804415 29.301001239983598623 195.34000826655699257 775.06049706751400663
    892000   0.5            300.63786      159.66101      3000.0051      167708.91      0.87150396     775.0605     
896000 300.10714031521 158.30076449161 3000.1455320005497924 167708.905011064 0.87150396265892804415 29.301001239983598623 195.34000826655699257 778.02906346473105259
    896000   0.5            300.10714      158.30076      3000.1455      167708.91      0.87150396     778.02906    
900000 327.1728 268.6120
900000 301.124876142344 170.329640192788 3000.1902901587900487 167708.905011064 0.87150396265892804415 29.301001239983598623 195.34000826655699257 781.18965136340398203
    900000   0.5            301.12488      170.32964      3000.1903      167708.91      0.87150396     781.18965    
904000 304.020212666399 148.571320053726 2999.741416283559829 167708.905011064 0.87150396265892804415 29.301001239983598623 195.34000826655699257 784.25024693078603377
    904000   0.5            304.02021      148.57132      2999.7414      167708.91      0.87150396     784.25025    
908000 302.847571530861 86.1511796889785 2999.8093295014000432 167708.905011064 0.87150396265892804415 29.301001239983598623 195.34000826655699257 786.69961588311696232
    908000   0.5            302.84757      86.15118       2999.8093      167708.91      0.87150396     786.69962    
910000 336.8826 267.3085
912000 303.384842842376 347.364514487714 2999.6442639312499523 167708.905011064 0.87150396265892804415 29.301001239983598623 195.34000826655699257 791.04015960679396358
    912000   0.5            303.38484      347.36451      2999.6443      167708.91      0.87150396     791.04016    
916000 300.011280639371 -79.0918428608677 3000.2127245585797937 167708.905011064 0.87150396265892804415 29.301001239983598623 195.34000826655699257 794.83607984916898204
    916000   0.5            300.01128     -79.091843      3000.2127      167708.91      0.87150396     794.83608    
920000 326.8822 276.5525
920000 297.792071406379 548.171536762256 3000.3633483935600452 167708.905011064 0.87150396265892804415 29.301001239983598623 195.34000826655699257 798.65615290287303196
    920000   0.5            297.79207      548.17154      3000.3633      167708.91      0.87150396     798.65615    
924000 298.961402699983 403.673613292412 3000.3626746606000779 167708.905011064 0.87150396265892804415 29.301001239983598623 195.34000826655699257 802.12591153251503329
    924000   0.5            298.9614       403.67361      3000.3627      167708.91      0.87150396     802.12591    
928000 299.855980220553 348.932755060875 3000.4738803187201484 167708.905011064 0.87150396265892804415 29.301001239983598623 195.34000826655699257 805.67588092534504085
    928000   0.5            299.85598      348.93276      3000.4739      167708.91      0.87150396     805.67588    
930000 344.2894 267.0740
932000 300.244042735679 457.97248468659 3000.278661859949807 167708.905011064 0.87150396265892804415 29.301001239983598623 195.34000826655699257 808.02098588923900024
    932000   0.5            300.24404      457.97248      3000.2787      167708.91      0.87150396     808.02099    
936000 300.721168967863 17.1081599866539 3000.1937922570400588 167708.905011064 0.87150396265892804415 29.301001239983598623 195.34000826655699257 811.06628560294495855
    936000   0.5            300.72117      17.10816       3000.1938      167708.91      0.87150396     811.06629    
940000 357.4537 268.2057
940000 296.988314077534 328.949390515595 3000.1866090987100506 167708.905011064 0.87150396265892804415 29.301001239983598623 195.34000826655699257 814.65155033105395432
    940000   0.5            296.98831      328.94939      3000.1866      167708.91      0.87150396     814.65155    
944000 300.036546867178 729.480640007016 3000.1123462048699366 167708.905011064 0.87150396265892804415 29.301001239983598623 195.34000826655699257 817.73169121174396423
    944000   0.5            300.03655      729.48064      3000.1123      167708.91      0.87150396     817.73169    
948000 299.351759242421 -351.442407289483 3000.1937311320498338 167708.905011064 0.87150396265892804415 29.301001239983598623 195.34000826655699257 821.32383431597702383
    948000   0.5            299.35176     -351.44241      3000.1937      167708.91      0.87150396     821.32383    
950000 326.1917 272.5903
952000 301.2425421618 -359.895615187985 2999.9387461127098504 167708.905011064 0.87150396265892804415 29.301001239983598623 195.34000826655699257 823.7640581609949777
    952000   0.5            301.24254     -359.89562      2999.9387      167708.91      0.87150396     823.76406    
956000 300.784486827464 19.489686134289 3000.2755950568998742 167708.905011064 0.87150396265892804415 29.301001239983598623 195.34000826655699257 826.84576994229303182
    956000   0.5            300.78449      19.489686      3000.2756      167708.91      0.87150396     826.84577    
960000 336.1783 274.1585
960000 300.593568781066 326.601588636434 3000.1094779562099575 167708.905011064 0.87150396265892804415 29.301001239983598623 195.34000826655699257 830.4519810136249589
    960000   0.5            300.59357      326.60159      3000.1095      167708.91      0.87150396     830.45198    
964000 299.478482117826 158.197829919 3000.3617506563700772 167708.905011064 0.87150396265892804415 29.301001239983598623 195.34000826655699257 834.01533185291805239
    964000   0.5            299.47848      158.19783      3000.3618      167708.91      0.87150396     834.01533    
968000 297.537945389062 -455.97387033684 3000.4383633118600301 167708.905011064 0.87150396265892804415 29.301001239983598623 195.34000826655699257 837.20635498916897177
    968000   0.5            297.53795     -455.97387      3000.4384      167708.91      0.87150396     837.20635    
970000 329.6330 277.4476
972000 300.940988801869 793.300626796149 3000.2248961903201234 167708.905011064 0.87150396265892804415 29.301001239983598623 195.34000826655699257 840.96377714072195886
    972000   0.5            300.94099      793.30063      3000.2249      167708.91      0.87150396     840.96378    
976000 297.447492853146 -277.098836721486 3000.4477893225198386 167708.905011064 0.87150396265892804415 29.301001239983598623 195.34000826655699257 843.24967409622104242
    976000   0.5            297.44749     -277.09884      3000.4478      167708.91      0.87150396     843.24967    
980000 338.8097 265.9961
980000 298.25556900553 -313.97396315436 3000.5894494134900015 167708.905011064 0.87150396265892804415 29.301001239983598623 195.34000826655699257 845.8772943631280441
    980000   0.5            298.25557     -313.97396      3000.5894      167708.91      0.87150396     845.87729    
984000 300.786872543595 -403.334347093245 3000.1527262656600215 167708.905011064 0.87150396265892804415 29.301001239983598623 195.34000826655699257 848.62881299052105533
    984000   0.5            300.78687     -403.33435      3000.1527      167708.91      0.87150396     848.62881    
988000 301.924920389291 350.192384986646 3000.095480355430027 167708.905011064 0.87150396265892804415 29.301001239983598623 195.34000826655699257 852.1346084860050496
    988000   0.5            301.92492      350.19238      3000.0955      167708.91      0.87150396     852.13461    
990000 330.5790 262.4956
992000 296.54315676345 -221.234891991553 3000.3645362696602206 167708.905011064 0.87150396265892804415 29.301001239983598623 195.34000826655699257 854.48868622576003418
    992000   0.5            296.54316     -221.23489      3000.3645      167708.91      0.87150396     854.48869    
996000 297.857479924578 45.081189278224 3000.4875920443901123 167708.905011064 0.87150396265892804415 29.301001239983598623 195.34000826655699257 858.30835704825801713
    996000   0.5            297.85748      45.081189      3000.4876      167708.91      0.87150396     858.30836    
1000000 332.3486 262.1362
1000000 298.942290769291 434.092549111697 3000.3708449264099727 167708.905011064 0.87150396265892804415 29.301001239983598623 195.34000826655699257 860.87189634564504104
   1000000   0.5            298.94229      434.09255      3000.3708      167708.91      0.87150396     860.8719     
1004000 300.894023869666 3.01190064164229 3000.3096583627598193 167708.905011064 0.87150396265892804415 29.301001239983598623 195.34000826655699257 864.23342559526997775
   1004000   0.5            300.89402      3.0119006      3000.3097      167708.91      0.87150396     864.23343    
1008000 298.05188177394 -332.295914256637 3000.4571429278298638 167708.905011064 0.87150396265892804415 29.301001239983598623 195.34000826655699257 867.22515486683505515
   1008000   0.5            298.05188     -332.29591      3000.4571      167708.91      0.87150396     867.22515    
1010000 332.5902 256.8517
1012000 296.894747705529 -434.222368027163 3000.59861084269005 167708.905011064 0.87150396265892804415 29.301001239983598623 195.34000826655699257 869.9963527151139715
   1012000   0.5            296.89475     -434.22237      3000.5986      167708.91      0.87150396     869.99635    
1016000 299.349975336163 505.16810870331 3000.2670707102702181 167708.905011064 0.87150396265892804415 29.301001239983598623 195.34000826655699257 872.54896658922700681
   1016000   0.5            299.34998      505.16811      3000.2671      167708.91      0.87150396     872.54897    
1020000 354.1061 257.8850
1020000 297.488845294132 404.977391836885 3000.1658086398501837 167708.905011064 0.87150396265892804415 29.301001239983598623 195.34000826655699257 875.88676546941394463
   1020000   0.5            297.48885      404.97739      3000.1658      167708.91      0.87150396     875.88677    
1024000 302.304848452397 727.138961593549 2999.87860582239 167708.905011064 0.87150396265892804415 29.301001239983598623 195.34000826655699257 878.80936450237800273
   1024000   0.5            302.30485      727.13896      2999.8786      167708.91      0.87150396     878.80936    
1028000 302.111589533352 -385.75451738943 3000.0582836736098216 167708.905011064 0.87150396265892804415 29.301001239983598623 195.34000826655699257 881.49478636191201986
   1028000   0.5            302.11159     -385.75452      3000.0583      167708.91      0.87150396     881.49479    
1030000 348.3611 265.7523
1032000 301.361029456718 597.946238037552 3000.2741635610400408 167708.905011064 0.87150396265892804415 29.301001239983598623 195.34000826655699257 884.38652095781901608
   1032000   0.5            301.36103      597.94624      3000.2742      167708.91      0.87150396     884.38652    
1036000 300.465286008296 582.339237568446 3000.1995464415499555 167708.905011064 0.87150396265892804415 29.301001239983598623 195.34000826655699257 886.6983199785929628
   1036000   0.5            300.46529      582.33924      3000.1995      167708.91      0.87150396     886.69832    
1040000 333.9067 268.7421
1040000 301.495229932397 619.547460551062 2999.8295313543999328 167708.905011064 0.87150396265892804415 29.301001239983598623 195.34000826655699257 889.1062578856840446
   1040000   0.5            301.49523      619.54746      2999.8295      167708.91      0.87150396     889.10626    
1044000 303.528796656386 23.2591610527452 2999.9091193005401692 167708.905011064 0.87150396265892804415 29.301001239983598623 195.34000826655699257 892.98543554247203247
   1044000   0.5            303.5288       23.259161      2999.9091      167708.91      0.87150396     892.98544    
1048000 303.422864030978 146.167136523084 2999.9502089417801471 167708.905011064 0.87150396265892804415 29.301001239983598623 195.34000826655699257 895.64290473923404079
   1048000   0.5            303.42286      146.16714      2999.9502      167708.91      0.87150396     895.6429     
1050000 312.5891 259.2247
[...]
  19752000   0.5            295.94085     -249.47643      3016.7799      167708.91      0.87150396     16137.425    
19756000 299.411056032688 428.883963680193 3016.396022567700129 167708.905011064 0.87150396265892804415 29.301001239983598623 195.34000826655699257 16140.038365940699805
  19756000   0.5            299.41106      428.88396      3016.396       167708.91      0.87150396     16140.038    
19760000 357.9995 251.3272
19760000 295.886775652235 -298.772766126307 3016.6084094338398245 167708.905011064 0.87150396265892804415 29.301001239983598623 195.34000826655699257 16142.52755185030037
  19760000   0.5            295.88678     -298.77277      3016.6084      167708.91      0.87150396     16142.528    
19764000 298.835256206112 335.802615939353 3016.6419468243498159 167708.905011064 0.87150396265892804415 29.301001239983598623 195.34000826655699257 16145.861695771600353
  19764000   0.5            298.83526      335.80262      3016.6419      167708.91      0.87150396     16145.862    
19768000 298.747896582699 -115.795494576229 3016.6592845880400091 167708.905011064 0.87150396265892804415 29.301001239983598623 195.34000826655699257 16148.72960844770023
  19768000   0.5            298.7479      -115.79549      3016.6593      167708.91      0.87150396     16148.73     
19770000 333.8673 261.1808
19772000 298.675429938276 562.810070497056 3016.6958643968500837 167708.905011064 0.87150396265892804415 29.301001239983598623 195.34000826655699257 16151.997607122100817
  19772000   0.5            298.67543      562.81007      3016.6959      167708.91      0.87150396     16151.998    
19776000 297.825667148607 177.526280238227 3017.1344468636698366 167708.905011064 0.87150396265892804415 29.301001239983598623 195.34000826655699257 16156.398680483700446
  19776000   0.5            297.82567      177.52628      3017.1344      167708.91      0.87150396     16156.399    
19780000 342.1177 269.4795
19780000 298.810203346765 -296.939494363352 3017.040687455169973 167708.905011064 0.87150396265892804415 29.301001239983598623 195.34000826655699257 16159.528645445599977
  19780000   0.5            298.8102      -296.93949      3017.0407      167708.91      0.87150396     16159.529    
19784000 302.157918661617 -343.7317402736 3016.6223610397400989 167708.905011064 0.87150396265892804415 29.301001239983598623 195.34000826655699257 16163.569527034600469
  19784000   0.5            302.15792     -343.73174      3016.6224      167708.91      0.87150396     16163.57     
19788000 298.791443917663 -222.004362426628 3016.7387808069997845 167708.905011064 0.87150396265892804415 29.301001239983598623 195.34000826655699257 16167.128984408500401
  19788000   0.5            298.79144     -222.00436      3016.7388      167708.91      0.87150396     16167.129    
19790000 360.2500 257.4041
19792000 298.319407673529 516.858998237026 3016.9645459476701035 167708.905011064 0.87150396265892804415 29.301001239983598623 195.34000826655699257 16170.327881942699605
  19792000   0.5            298.31941      516.859        3016.9645      167708.91      0.87150396     16170.328    
19796000 301.93374500416 -531.441280923774 3016.838636611380025 167708.905011064 0.87150396265892804415 29.301001239983598623 195.34000826655699257 16173.38398966709974
  19796000   0.5            301.93375     -531.44128      3016.8386      167708.91      0.87150396     16173.384    
19800000 352.8275 268.6126
19800000 299.718967479942 745.861357865514 3016.6196007709199876 167708.905011064 0.87150396265892804415 29.301001239983598623 195.34000826655699257 16176.744096161999551
  19800000   0.5            299.71897      745.86136      3016.6196      167708.91      0.87150396     16176.744    
19804000 295.121994710667 556.121468061455 3016.7040512697599297 167708.905011064 0.87150396265892804415 29.301001239983598623 195.34000826655699257 16180.180619351500354
  19804000   0.5            295.12199      556.12147      3016.7041      167708.91      0.87150396     16180.181    
19808000 297.917655184378 -1121.47422587634 3016.8677574321500288 167708.905011064 0.87150396265892804415 29.301001239983598623 195.34000826655699257 16182.971755988499353
  19808000   0.5            297.91766     -1121.4742      3016.8678      167708.91      0.87150396     16182.972    
19810000 312.9386 278.8632
19812000 299.343758458265 -421.736459482026 3016.6007199798300462 167708.905011064 0.87150396265892804415 29.301001239983598623 195.34000826655699257 16185.912574055100777
  19812000   0.5            299.34376     -421.73646      3016.6007      167708.91      0.87150396     16185.913    
19816000 300.714364945928 -162.65127515159 3016.2909075587399457 167708.905011064 0.87150396265892804415 29.301001239983598623 195.34000826655699257 16188.384378479400766
  19816000   0.5            300.71436     -162.65128      3016.2909      167708.91      0.87150396     16188.384    
19820000 315.6399 276.1778
19820000 300.662560533012 270.126901655724 3016.4801150895000319 167708.905011064 0.87150396265892804415 29.301001239983598623 195.34000826655699257 16191.106479897300233
  19820000   0.5            300.66256      270.1269       3016.4801      167708.91      0.87150396     16191.106    
19824000 300.821883856393 141.224918324342 3016.4714380467298724 167708.905011064 0.87150396265892804415 29.301001239983598623 195.34000826655699257 16194.528698510599497
  19824000   0.5            300.82188      141.22492      3016.4714      167708.91      0.87150396     16194.529    
19828000 301.290676892939 61.9255009192375 3016.3500518872701832 167708.905011064 0.87150396265892804415 29.301001239983598623 195.34000826655699257 16197.911766809200344
  19828000   0.5            301.29068      61.925501      3016.3501      167708.91      0.87150396     16197.912    
19830000 352.1822 262.3919
19832000 299.452044005183 95.9690502501551 3016.5632655401800548 167708.905011064 0.87150396265892804415 29.301001239983598623 195.34000826655699257 16201.655449657100689
  19832000   0.5            299.45204      95.96905       3016.5633      167708.91      0.87150396     16201.655    
19836000 300.16523215459 496.070334382192 3016.377937492629826 167708.905011064 0.87150396265892804415 29.301001239983598623 195.34000826655699257 16206.455769795500601
  19836000   0.5            300.16523      496.07033      3016.3779      167708.91      0.87150396     16206.456    
19840000 343.0810 264.3061
19840000 299.76106235097 -137.935297745026 3016.5895253476601283 167708.905011064 0.87150396265892804415 29.301001239983598623 195.34000826655699257 16209.782358342099542
  19840000   0.5            299.76106     -137.9353       3016.5895      167708.91      0.87150396     16209.782    
19844000 297.776402860173 206.427192546041 3017.0474028967000777 167708.905011064 0.87150396265892804415 29.301001239983598623 195.34000826655699257 16213.176707153999814
  19844000   0.5            297.7764       206.42719      3017.0474      167708.91      0.87150396     16213.177    
19848000 301.542557151933 24.468002782032 3016.8982717816102195 167708.905011064 0.87150396265892804415 29.301001239983598623 195.34000826655699257 16216.73800146189933
  19848000   0.5            301.54256      24.468003      3016.8983      167708.91      0.87150396     16216.738    
19850000 351.7155 254.3726
19852000 294.743321652507 254.101359588389 3017.3458745030497994 167708.905011064 0.87150396265892804415 29.301001239983598623 195.34000826655699257 16219.687265710999782
  19852000   0.5            294.74332      254.10136      3017.3459      167708.91      0.87150396     16219.687    
19856000 293.709714344576 -432.634950335904 3017.3965256930800933 167708.905011064 0.87150396265892804415 29.301001239983598623 195.34000826655699257 16222.855760203499813
  19856000   0.5            293.70971     -432.63495      3017.3965      167708.91      0.87150396     16222.856    
19860000 338.8372 263.3229
19860000 294.801446088921 -451.036079523964 3017.186714348879832 167708.905011064 0.87150396265892804415 29.301001239983598623 195.34000826655699257 16227.765828292900551
  19860000   0.5            294.80145     -451.03608      3017.1867      167708.91      0.87150396     16227.766    
19864000 299.631814181976 53.2076438798705 3016.5958147008500418 167708.905011064 0.87150396265892804415 29.301001239983598623 195.34000826655699257 16231.31407144160039
  19864000   0.5            299.63181      53.207644      3016.5958      167708.91      0.87150396     16231.314    
19868000 301.940530178935 530.978945106018 3016.5348264104800364 167708.905011064 0.87150396265892804415 29.301001239983598623 195.34000826655699257 16235.370082259700212
  19868000   0.5            301.94053      530.97895      3016.5348      167708.91      0.87150396     16235.37     
19870000 338.6809 272.9083
19872000 299.297457811753 -96.6581950946292 3016.7525477263998255 167708.905011064 0.87150396265892804415 29.301001239983598623 195.34000826655699257 16238.815906406400245
  19872000   0.5            299.29746     -96.658195      3016.7525      167708.91      0.87150396     16238.816    
19876000 297.108927646954 -165.642514208659 3016.8219183178398453 167708.905011064 0.87150396265892804415 29.301001239983598623 195.34000826655699257 16241.731731172900254
  19876000   0.5            297.10893     -165.64251      3016.8219      167708.91      0.87150396     16241.732    
19880000 335.6649 275.2041
19880000 302.50305959193 484.713722084943 3016.5563845332699202 167708.905011064 0.87150396265892804415 29.301001239983598623 195.34000826655699257 16245.805933397599802
  19880000   0.5            302.50306      484.71372      3016.5564      167708.91      0.87150396     16245.806    
19884000 301.857714233547 1024.02755296116 3016.6704929468501177 167708.905011064 0.87150396265892804415 29.301001239983598623 195.34000826655699257 16250.213583699100127
  19884000   0.5            301.85771      1024.0276      3016.6705      167708.91      0.87150396     16250.214    
19888000 299.698278784574 -186.807955152495 3016.5579883595601132 167708.905011064 0.87150396265892804415 29.301001239983598623 195.34000826655699257 16253.432132899799399
  19888000   0.5            299.69828     -186.80796      3016.558       167708.91      0.87150396     16253.432    
19890000 343.2538 270.6523
19892000 302.886439923061 7.15290780299959 3015.9951347254300345 167708.905011064 0.87150396265892804415 29.301001239983598623 195.34000826655699257 16256.220053246299358
  19892000   0.5            302.88644      7.1529078      3015.9951      167708.91      0.87150396     16256.22     
19896000 298.499392667857 -301.336492558986 3016.2121148100900427 167708.905011064 0.87150396265892804415 29.301001239983598623 195.34000826655699257 16261.215146441600155
  19896000   0.5            298.49939     -301.33649      3016.2121      167708.91      0.87150396     16261.215    
19900000 325.0258 273.5903
19900000 301.355054553597 -620.47550284155 3016.3723760250800296 167708.905011064 0.87150396265892804415 29.301001239983598623 195.34000826655699257 16265.002260253400891
  19900000   0.5            301.35505     -620.4755       3016.3724      167708.91      0.87150396     16265.002    
19904000 301.204238133723 414.226680780668 3016.2782802662400172 167708.905011064 0.87150396265892804415 29.301001239983598623 195.34000826655699257 16268.056909537399406
  19904000   0.5            301.20424      414.22668      3016.2783      167708.91      0.87150396     16268.057    
19908000 302.351218164182 -13.2940653870306 3016.1470574945601584 167708.905011064 0.87150396265892804415 29.301001239983598623 195.34000826655699257 16270.907205434499701
  19908000   0.5            302.35122     -13.294065      3016.1471      167708.91      0.87150396     16270.907    
19910000 334.8555 259.6665
19912000 297.589838929558 -239.43016785502 3016.3959858982098012 167708.905011064 0.87150396265892804415 29.301001239983598623 195.34000826655699257 16273.580150426399996
  19912000   0.5            297.58984     -239.43017      3016.396       167708.91      0.87150396     16273.58     
19916000 297.570446301067 168.375888742012 3016.4439566123401164 167708.905011064 0.87150396265892804415 29.301001239983598623 195.34000826655699257 16277.612677574899863
  19916000   0.5            297.57045      168.37589      3016.444       167708.91      0.87150396     16277.613    
19920000 333.4562 249.6205
19920000 299.732350741634 120.232576561219 3016.2867390933201932 167708.905011064 0.87150396265892804415 29.301001239983598623 195.34000826655699257 16280.965425113199672
  19920000   0.5            299.73235      120.23258      3016.2867      167708.91      0.87150396     16280.965    
19924000 300.886569426678 -209.139500707906 3016.4520403588498993 167708.905011064 0.87150396265892804415 29.301001239983598623 195.34000826655699257 16283.733229834699159
  19924000   0.5            300.88657     -209.1395       3016.452       167708.91      0.87150396     16283.733    
19928000 298.714976062126 -508.695687610679 3016.6371964331601703 167708.905011064 0.87150396265892804415 29.301001239983598623 195.34000826655699257 16286.519558696400054
  19928000   0.5            298.71498     -508.69569      3016.6372      167708.91      0.87150396     16286.52     
19930000 331.8926 257.6584
19932000 300.961153238115 -308.654634277739 3016.1400250801898437 167708.905011064 0.87150396265892804415 29.301001239983598623 195.34000826655699257 16288.947435767899151
  19932000   0.5            300.96115     -308.65463      3016.14        167708.91      0.87150396     16288.947    
19936000 301.80523773062 -336.911704002271 3016.1945201294897743 167708.905011064 0.87150396265892804415 29.301001239983598623 195.34000826655699257 16293.198970569599624
  19936000   0.5            301.80524     -336.9117       3016.1945      167708.91      0.87150396     16293.199    
19940000 320.1566 242.4536
19940000 300.108284572024 77.810055542028 3016.554954945119789 167708.905011064 0.87150396265892804415 29.301001239983598623 195.34000826655699257 16296.493912022500808
  19940000   0.5            300.10828      77.810056      3016.555       167708.91      0.87150396     16296.494    
19944000 301.857495349047 437.989223099613 3016.6113191824301794 167708.905011064 0.87150396265892804415 29.301001239983598623 195.34000826655699257 16299.495376794200638
  19944000   0.5            301.8575       437.98922      3016.6113      167708.91      0.87150396     16299.495    
19948000 299.450333336109 434.169474209356 3016.7726686323198919 167708.905011064 0.87150396265892804415 29.301001239983598623 195.34000826655699257 16303.779450391299179
  19948000   0.5            299.45033      434.16947      3016.7727      167708.91      0.87150396     16303.779    
19950000 349.4540 255.6837
19952000 297.91391879182 394.617351017447 3016.608554840459874 167708.905011064 0.87150396265892804415 29.301001239983598623 195.34000826655699257 16306.710485903500739
  19952000   0.5            297.91392      394.61735      3016.6086      167708.91      0.87150396     16306.71     
19956000 297.407067694049 15.2971076648959 3016.4691647247000219 167708.905011064 0.87150396265892804415 29.301001239983598623 195.34000826655699257 16312.928295381399948
  19956000   0.5            297.40707      15.297108      3016.4692      167708.91      0.87150396     16312.928    
19960000 346.1283 245.5322
19960000 298.205502722341 -340.811100726937 3016.4151479967599698 167708.905011064 0.87150396265892804415 29.301001239983598623 195.34000826655699257 16315.484079189900513
  19960000   0.5            298.2055      -340.8111       3016.4151      167708.91      0.87150396     16315.484    
19964000 299.290652526965 510.907933769062 3016.2468100749101723 167708.905011064 0.87150396265892804415 29.301001239983598623 195.34000826655699257 16318.686520351600848
  19964000   0.5            299.29065      510.90793      3016.2468      167708.91      0.87150396     16318.687    
19968000 295.674167995597 170.583630125878 3016.5303518682999311 167708.905011064 0.87150396265892804415 29.301001239983598623 195.34000826655699257 16321.709091280999928
  19968000   0.5            295.67417      170.58363      3016.5304      167708.91      0.87150396     16321.709    
19970000 348.5825 250.5490
19972000 301.137584376464 -466.9997481143 3016.6372500017000675 167708.905011064 0.87150396265892804415 29.301001239983598623 195.34000826655699257 16324.240075807099856
  19972000   0.5            301.13758     -466.99975      3016.6373      167708.91      0.87150396     16324.24     
19976000 300.411184294276 249.879645749134 3016.4968658711200078 167708.905011064 0.87150396265892804415 29.301001239983598623 195.34000826655699257 16327.075987749200067
  19976000   0.5            300.41118      249.87965      3016.4969      167708.91      0.87150396     16327.076    
19980000 354.9465 257.7961
19980000 299.763156966914 377.398016345983 3016.455132267999943 167708.905011064 0.87150396265892804415 29.301001239983598623 195.34000826655699257 16329.450374335499873
  19980000   0.5            299.76316      377.39802      3016.4551      167708.91      0.87150396     16329.45     
19984000 299.35907981839 -12.3626352879571 3016.3428565722902022 167708.905011064 0.87150396265892804415 29.301001239983598623 195.34000826655699257 16332.313207424900611
  19984000   0.5            299.35908     -12.362635      3016.3429      167708.91      0.87150396     16332.313    
19988000 298.668796522281 325.494155592751 3016.3370787039998504 167708.905011064 0.87150396265892804415 29.301001239983598623 195.34000826655699257 16336.392440314100895
  19988000   0.5            298.6688       325.49416      3016.3371      167708.91      0.87150396     16336.392    
19990000 347.9313 262.9476
19992000 297.197209983661 227.679382218735 3016.6474784866200025 167708.905011064 0.87150396265892804415 29.301001239983598623 195.34000826655699257 16339.260477249299583
  19992000   0.5            297.19721      227.67938      3016.6475      167708.91      0.87150396     16339.26     
19996000 304.751714482097 56.3862980372838 3016.4314985191799678 167708.905011064 0.87150396265892804415 29.301001239983598623 195.34000826655699257 16341.76363473929996
  19996000   0.5            304.75171      56.386298      3016.4315      167708.91      0.87150396     16341.764    
20000000 348.9289 239.1612
20000000 300.643128021907 213.416532707637 3016.42109521347993 167708.905011064 0.87150396265892804415 29.301001239983598623 195.34000826655699257 16344.629726166000182
  20000000   0.5            300.64313      213.41653      3016.4211      167708.91      0.87150396     16344.63     
Loop time of 96095.6 on 36 procs for 20000000 steps with 6000 atoms

Performance: 8.991 ns/day, 2.669 hours/ns, 208.126 timesteps/s, 1.249 Matom-step/s
99.2% CPU use with 36 MPI tasks x no OpenMP threads

MPI task timing breakdown:
Section |  min time  |  avg time  |  max time  |%varavg| %total
---------------------------------------------------------------
Pair    | 9070.7     | 12976      | 16688      |1921.6 | 13.50
Bond    | 95.545     | 110.77     | 126.98     |  73.7 |  0.12
Kspace  | 67100      | 71566      | 76007      |1076.7 | 74.47
Neigh   | 164.21     | 168.44     | 173.43     |  21.7 |  0.18
Comm    | 7638.8     | 9176.6     | 10672      | 828.0 |  9.55
Output  | 0.25155    | 0.67143    | 0.68959    |   8.7 |  0.00
Modify  | 66.433     | 72.948     | 84.303     |  50.3 |  0.08
Other   |            | 2023       |            |       |  2.11

Nlocal:        166.667 ave         197 max         127 min
Histogram: 1 1 2 8 2 3 8 4 3 4
Nghost:        3515.53 ave        3910 max        3156 min
Histogram: 2 7 7 4 0 1 3 4 1 7
Neighs:        42328.6 ave       56440 max       29076 min
Histogram: 2 2 7 6 3 3 5 2 3 3

Total # of neighbors = 1523831
Ave neighs/atom = 253.97183
Ave special neighs/atom = 2
Neighbor list builds = 97300
Dangerous builds = 0
