LAMMPS data file via write_data, version 2 Aug 2023, timestep = 10000000, units = real

6000 atoms
2 atom types
4000 bonds
1 bond types
2000 angles
1 angle types

0.18649356071343703 54.77852943926182 xlo xhi
0.18649356071343703 54.77852943926182 ylo yhi
0.18649356071343703 54.77852943926182 zlo zhi

Masses

1 15.9994
2 12.0107

Pair Coeffs # lj/cut/coul/long

1 0.156989 3.05
2 0.0536545 2.8

Bond Coeffs # harmonic

1 1028.27 1.16

Angle Coeffs # harmonic

1 55.96 180

Atoms # full

563 188 2 0.7 4.965244177228681 7.158267558957549 6.386487564507668 2 2 0
5543 1848 2 0.7 2.3702684232406632 0.2714799127839095 2.981963888286674 3 2 2
562 188 1 -0.35 3.834079019437284 7.006821028561571 6.679488077435557 2 2 0
564 188 1 -0.35 6.106856499114314 7.335614037123907 6.208745344462018 2 2 0
5130 1710 1 -0.35 0.48548745144562944 8.584667874764436 6.183354140889612 -3 2 0
5921 1974 2 0.7 6.964531955083924 2.90991077365161 4.25513924743458 3 0 -3
2603 868 2 0.7 7.566477812340699 9.177437973293866 10.83068709072661 3 3 5
2604 868 1 -0.35 6.599474678948812 8.519029541654998 10.641690833005311 3 3 5
3202 1068 1 -0.35 5.846807669844386 8.113857191111803 3.4469728136558095 0 0 4
3203 1068 2 0.7 4.834142885091423 8.608544160088561 3.494741656323489 0 0 4
3204 1068 1 -0.35 3.791691951143972 9.121586772043969 3.5610106596460014 0 0 4
2716 906 1 -0.35 8.982104748828077 6.871253308020049 13.056100892379918 -3 -2 -2
5292 1764 1 -0.35 3.6026305572247423 3.361924523496135 2.8892438353753054 -2 -1 2
1832 611 2 0.7 5.888399790077435 3.0216306175446004 12.133391635799526 -1 5 -1
5128 1710 1 -0.35 1.502033138357635 8.843042864469618 8.294608129649314 -3 2 0
1831 611 1 -0.35 4.839366746762932 2.4649713057285467 12.103532102944225 -1 5 -1
93 31 1 -0.35 5.005389470879615 0.2782238319317151 7.5058001688559965 1 -2 -3
5291 1764 2 0.7 3.995753767679692 4.318010250341739 3.396459619838001 -2 -1 2
199 67 1 -0.35 1.191759014472268 4.732395824076965 5.264635359225786 2 -1 -3
2982 994 1 -0.35 8.94409107542912 1.53173679668823 10.507465023326958 3 0 -1
5281 1761 1 -0.35 1.2958598994308612 6.987001321580835 11.730875268340636 -2 4 1
1833 611 1 -0.35 6.859055001467789 3.6276842476992104 12.183729611334188 -1 5 -1
5282 1761 2 0.7 1.4830136531503066 5.872289943315999 11.523742818817546 -2 4 1
2717 906 2 0.7 9.031465496189872 5.779167586422001 13.443104812077978 -3 -2 -2
5290 1764 1 -0.35 4.450382767532323 5.242231228150686 3.9334104783790953 -2 -1 2
5920 1974 1 -0.35 6.032089763545222 2.3795314715903206 4.734898050953126 3 0 -3
4888 1630 1 -0.35 7.2343790975213 1.704560748143986 0.5073554251833531 2 -1 1
5542 1848 1 -0.35 3.1844525926497753 0.5545465148723872 2.1910321053461623 3 2 2
3409 1137 1 -0.35 4.524564849788372 7.853040109791164 0.47302188546737345 1 0 -3
2961 987 1 -0.35 1.5672378547784374 1.1314539019766063 11.00677778510898 0 5 -2
3648 1216 1 -0.35 1.0714507642077362 0.5509283683763435 7.342832545531839 0 2 -4
1747 583 1 -0.35 6.544086962009559 2.8960577256653446 9.42188874821691 3 5 -2
5283 1761 1 -0.35 1.6722681835546274 4.762973600503028 11.264949946268272 -2 4 1
5129 1710 2 0.7 0.9707090132213826 8.718032118710182 7.230046620514416 -3 2 0
969 323 1 -0.35 0.4752395232655428 3.0207672422591503 2.0888188490792063 1 -2 -5
1748 583 2 0.7 6.796496629172536 3.438004556833813 8.418438627794686 3 5 -2
1749 583 1 -0.35 6.915834902033274 4.003614782916319 7.414412068835127 3 5 -2
5922 1974 1 -0.35 7.816720993765052 3.4939863118698016 3.663252995733528 3 0 -3
4890 1630 1 -0.35 9.193611994017724 2.91868688541265 0.2183707942012324 2 -1 1
4889 1630 2 0.7 8.229945502038888 2.2572914482441253 0.42296587575762656 2 -1 1
3410 1137 2 0.7 4.8994673642913655 6.765334656625964 0.48857973890074513 1 0 -3
5526 1842 1 -0.35 8.620678402250824 6.161865617085308 1.310600258290824 1 1 -1
1016 339 2 0.7 1.2135567043560163 6.439636786467296 1.7691330056766263 1 -1 1
200 67 2 0.7 0.20222870878716748 5.181838652840641 5.684368630681275 2 -1 -3
1015 339 1 -0.35 2.2763832116983793 6.493910891495083 2.1875463887254623 1 -1 1
968 323 2 0.7 0.7547724655647104 3.4410966928603557 1.0306307111192377 1 -2 -5
3411 1137 1 -0.35 5.278912414413641 5.660443638676224 0.4981539296608465 1 0 -3
1302 434 1 -0.35 11.867519618221325 0.19050041094463666 0.5834892379144636 2 2 3
2980 994 1 -0.35 9.654026198211566 1.715799823316386 12.654211659152121 3 0 -1
2981 994 2 0.7 9.303629800333976 1.6209494462912863 11.589052933357966 3 0 -1
5902 1968 1 -0.35 18.35731895375605 2.695236520025991 13.121353969495827 0 -2 -1
5244 1748 1 -0.35 16.063081485737914 5.031382593989602 7.637563233414231 -1 -2 4
185 62 2 0.7 17.33334505718951 1.9839335431422496 6.528797642769709 -1 1 -1
4793 1598 2 0.7 12.489927398861225 2.7826133310694448 7.070442011133072 -1 -1 0
5525 1842 2 0.7 9.584289933924307 5.579160214387834 1.5807354702755692 1 1 -1
5524 1842 1 -0.35 10.547312391935938 5.014160360840888 1.892268087685474 1 1 -1
3891 1297 1 -0.35 15.174759336410736 5.525408050285249 3.803902761534736 1 1 0
3890 1297 2 0.7 15.590049746051154 4.454512622673611 3.945244316647794 1 1 0
3910 1304 1 -0.35 13.851962025011053 9.03121392455611 3.712228567849615 -2 2 -1
5675 1892 2 0.7 11.955573655743681 3.4912283098216426 11.422224405668846 4 -1 1
5674 1892 1 -0.35 11.004922309514619 4.188536459074779 11.252586677740162 4 -1 1
3912 1304 1 -0.35 12.889999996350381 7.159564410545204 2.646211741828542 -2 2 -1
5985 1995 1 -0.35 9.59275131821535 6.690942389395721 6.39891350458072 1 0 -2
2755 919 1 -0.35 17.480368455693174 8.314323115178988 7.326845540419845 1 4 0
5984 1995 2 0.7 10.497015388245842 6.756818069481957 7.127478713299705 1 0 -2
3889 1297 1 -0.35 15.982345051304657 3.357594991369123 3.993654616710236 1 1 0
5983 1995 1 -0.35 11.462916958273887 6.836752698292554 7.786972266985304 1 0 -2
2756 919 2 0.7 16.894917917090243 8.770538596284275 8.232917076185734 1 4 0
2757 919 1 -0.35 16.310812986697584 9.190767904184257 9.152798100032172 1 4 0
3911 1304 2 0.7 13.394801012994762 8.084301935417649 3.1807889664168827 -2 2 -1
4792 1598 1 -0.35 12.795791571243369 3.8725939562233886 6.862229396257707 -1 -1 0
5242 1748 1 -0.35 15.247512348982605 5.709848078012863 9.706691389929032 -1 -2 4
5243 1748 2 0.7 15.695579405289065 5.382255039033054 8.703591966694693 -1 -2 4
910 304 1 -0.35 15.602029736933652 0.7604512153743854 10.201717233614303 -3 -3 -3
4794 1598 1 -0.35 12.22794663679246 1.6711366742378817 7.281739517133498 -1 -1 0
5676 1892 1 -0.35 12.955767462077226 2.929025362649198 11.589504935481143 4 -1 1
186 62 1 -0.35 16.23058924342728 1.6760879937302806 6.758383654790649 -1 1 -1
4719 1573 1 -0.35 17.468610183953505 3.362229591721221 9.875962624154434 1 0 0
3507 1169 1 -0.35 10.651041892022503 9.139479734030138 2.2791639340422156 -1 -3 0
4718 1573 2 0.7 18.10110493244899 2.37955933923215 9.882147898526066 1 0 0
2436 812 1 -0.35 18.176060181014535 4.636300777535622 0.4577363531349619 -2 -1 -2
1301 434 2 0.7 12.330150661845854 1.2356364470345587 0.3583712443074205 2 2 3
2602 868 1 -0.35 8.542190612885197 9.812166553492505 10.985360548633235 3 3 5
128 43 2 0.7 7.0243548596000585 17.879504921430463 0.2211699892906745 3 -2 7
2869 957 1 -0.35 5.969659339019969 10.960275809689792 5.761686150934893 -2 2 0
4938 1646 1 -0.35 6.410496763969422 10.526406015133487 13.644226612968641 0 1 1
129 43 1 -0.35 6.650703832222846 17.69954902816118 1.308821274120328 3 -2 7
3510 1170 1 -0.35 2.7322025284140143 10.887853731745105 0.4280794510260238 3 1 3
2870 957 2 0.7 5.999770968346601 10.693085164369295 6.883706511356741 -2 2 0
2871 957 1 -0.35 5.9234862463167905 10.490911267157552 8.015644857045153 -2 2 0
420 140 1 -0.35 4.421446996390669 12.015001002756533 10.383316217434652 -2 3 1
694 232 1 -0.35 6.720936471359486 10.0714157375227 0.49714101924706144 -2 -2 1
419 140 2 0.7 5.254069879261634 12.812287944906316 10.240690938677789 -2 3 1
1070 357 2 0.7 4.3283072594821705 16.879491567144377 6.417002765975395 6 -1 1
418 140 1 -0.35 5.991216038123846 13.674858929413801 10.18628174515018 -2 3 1
3152 1051 2 0.7 3.7621619886541513 14.959424929072119 1.068005065574177 3 2 3
2652 884 1 -0.35 3.6550045809838125 13.176604849769147 3.8674064307437552 -2 3 -2
2651 884 2 0.7 3.673999384887144 12.81769290789795 4.972914348963874 -2 3 -2
2650 884 1 -0.35 3.693704279156079 12.53582234600064 6.103579494302717 -2 3 -2
3153 1051 1 -0.35 4.608072776719852 14.216123288750678 0.7952885874222819 3 2 3
3151 1051 1 -0.35 2.8605749401916447 15.64364674847567 1.4184770387578876 3 2 3
1071 357 1 -0.35 3.3833304178607975 17.421746171543464 6.667652481188758 6 -1 1
3044 1015 2 0.7 1.8476763866974044 16.627434544916884 10.955004532751751 -4 -1 -1
3045 1015 1 -0.35 1.47532126850127 16.193480769532147 9.925848228021469 -4 -1 -1
1069 357 1 -0.35 5.313060535191121 16.31620712098394 6.147718514494641 6 -1 1
3043 1015 1 -0.35 2.2115603636790233 17.08540859626112 11.926657970080855 -4 -1 -1
3509 1170 2 0.7 2.3237729592974707 9.795729444534391 0.2950204205803386 3 1 3
1381 461 1 -0.35 9.042035710073565 13.534160191145768 4.026498270062156 0 0 3
5952 1984 1 -0.35 7.644153354026674 16.991896499569183 13.165960566275208 2 -2 -3
5951 1984 2 0.7 6.594643098182113 16.7342676098697 13.548774349870966 2 -2 -3
2606 869 2 0.7 17.054113116457277 17.836185814534065 8.373751189372308 0 -2 1
1278 426 1 -0.35 16.336087557306115 12.218160136370244 11.649309605651103 3 -1 4
4621 1541 1 -0.35 12.72895558618256 12.646710701332339 0.41919948959436404 0 4 3
291 97 1 -0.35 10.7257213949133 17.974442545981724 6.305731064392713 3 -2 1
594 198 1 -0.35 16.0874179024754 15.820910873550334 11.739295691037283 3 -2 2
1198 400 1 -0.35 17.03232593466592 17.384402881950837 4.7702160806515 -3 -4 -4
1276 426 1 -0.35 18.126563085596448 11.284060998435587 10.424057273606069 3 -1 4
592 198 1 -0.35 17.738687802723437 16.565384873933876 13.151142947425098 3 -2 2
4962 1654 1 -0.35 10.422824629097937 16.88395165570425 12.68095867896363 1 3 -1
4961 1654 2 0.7 10.791889049415584 16.271697799013484 13.63826074107795 1 3 -1
1874 625 2 0.7 14.15287186471695 17.02209804627036 3.7976825112499584 0 0 -2
255 85 1 -0.35 16.005361485747528 12.650412835659477 4.560549410563858 2 0 6
2607 869 1 -0.35 18.13362124861877 17.544663253680184 8.695987025331481 0 -2 1
3506 1169 2 0.7 10.33888046740952 10.223512259630075 2.0142034010373786 -1 -3 0
1875 625 1 -0.35 14.18477301884778 18.160856978058124 3.5443803055986676 0 0 -2
2895 965 1 -0.35 13.14876847902228 14.52377113784454 12.46015960812344 3 1 4
5876 1959 2 0.7 14.639926736145734 18.161754374800783 12.778382203334933 -3 1 5
2605 869 1 -0.35 15.982315530498271 18.155810134741113 8.117699602065922 0 -2 1
593 198 2 0.7 16.980567626995697 16.1932039047883 12.386543118537851 3 -2 2
1382 461 2 0.7 9.645324005173642 14.04266766537471 3.192128230514061 0 0 3
1383 461 1 -0.35 10.309840736159297 14.56900543822576 2.3845689562113006 0 0 3
1873 625 1 -0.35 14.018206797178987 15.882546090396142 4.061694197934077 0 0 -2
1199 400 2 0.7 17.410796067269523 17.0179995171181 3.749499834960587 -3 -4 -4
3860 1287 2 0.7 10.413138325779498 10.5908109301605 6.106099545263468 2 5 0
1649 550 2 0.7 16.473249184153076 13.924021249535455 7.46013675107057 0 -3 0
1648 550 1 -0.35 15.91959718585054 14.702529097066355 6.776855760428331 0 -3 0
3861 1287 1 -0.35 9.322504914645922 10.70746239012154 6.532748261610424 2 5 0
1277 426 2 0.7 17.257026284423407 11.703760342562687 11.11585608230863 3 -1 4
144 48 1 -0.35 11.24487460926895 15.543156431054898 8.32198154426785 -3 0 0
253 85 1 -0.35 13.73034495935163 13.086277320086985 4.352127544486249 2 0 6
3859 1287 1 -0.35 11.436217844660238 10.47028125048549 5.607923698331352 2 5 0
3505 1169 1 -0.35 9.890866492961917 11.287500684125828 1.8275987410216046 -1 -3 0
4623 1541 1 -0.35 14.502215854834764 14.056593657459597 0.8160344718803406 0 4 3
4622 1541 2 0.7 13.588082809430086 13.364001327626854 0.64978191652472 0 4 3
1650 550 1 -0.35 16.99630014092715 13.102928088247 8.097330192011498 0 -3 0
142 48 1 -0.35 9.682449708440565 14.130938436624627 7.26534933484713 -3 0 0
143 48 2 0.7 10.417455123776975 14.930245036436416 7.750992185803269 -3 0 0
1200 400 1 -0.35 17.59736809226097 16.57190063295017 2.675477903365512 -3 -4 -4
254 85 2 0.7 14.897762891813779 12.886610581211936 4.41549482190591 2 0 6
5877 1959 1 -0.35 14.016989132560456 17.33888297493076 13.26820220445511 -3 1 5
2894 965 2 0.7 13.77367011524293 14.408921870666141 13.482078861305721 3 1 4
1351 451 1 -0.35 13.326351238052872 9.487495008489304 0.21081071795640582 3 0 2
5423 1808 2 0.7 6.599328662070315 5.292349831893901 24.35290028569802 -1 0 1
5424 1808 1 -0.35 6.1406689504312055 6.204940749249796 24.93519720939625 -1 0 1
5422 1808 1 -0.35 6.996394447913354 4.267449597473861 23.96866000321947 -1 0 1
2420 807 2 0.7 4.04410898867757 2.259509765689376 25.20686229672891 0 -2 0
2 1 2 0.7 5.125162744204965 1.8184671040753246 20.765088193646722 3 2 3
1433 478 2 0.7 2.1288977053074976 6.2081673690432355 20.186921570403058 3 0 3
5976 1992 1 -0.35 6.7950795043308005 3.9845537095030554 16.006848962954958 -2 -1 2
5975 1992 2 0.7 5.831261370279817 3.881459466749225 16.619813531236225 -2 -1 2
5639 1880 2 0.7 0.7653805130363047 2.7988959001109204 17.055741459609568 -1 1 0
5974 1992 1 -0.35 4.869860407454303 3.703023867849839 17.20932260612924 -2 -1 2
3 1 1 -0.35 5.795111831201702 2.6976227871972394 21.102248577522406 3 2 3
1 1 1 -0.35 4.46381196342619 0.942388958820756 20.49229621580021 3 2 3
4352 1451 2 0.7 7.533066067957667 6.2688704704194285 20.752740111593948 -2 -4 4
2421 807 1 -0.35 4.511494378603673 2.5097365226947095 26.24723458893259 0 -2 0
157 53 1 -0.35 3.5522735467828617 8.886188809114683 15.280404004184609 -1 -3 -2
1616 539 2 0.7 9.107244883319474 2.5717865588976827 21.182373044412827 4 4 2
5192 1731 2 0.7 8.913543512311511 1.9731448492910852 15.81592198921613 -2 -1 -1
4351 1451 1 -0.35 6.617051366578169 5.988934109343251 20.091326131770913 -2 -4 4
158 53 2 0.7 3.7060765946779948 7.827001246671714 15.770129142538254 -1 -3 -2
5191 1731 1 -0.35 8.022716306340342 1.302777868843723 16.067174821794303 -2 -1 -1
2048 683 2 0.7 4.219180176482632 9.123114392145844 22.581073037396227 0 -1 -4
2049 683 1 -0.35 4.940870630770537 8.864344139984095 21.702821696165618 0 -1 -4
4645 1549 1 -0.35 0.21966719113055458 7.390112527546298 24.095204324123706 -1 1 5
1617 539 1 -0.35 8.710818111040245 3.107399075693486 20.21598434069367 4 4 2
2419 807 1 -0.35 3.6475868387721833 2.152809851147872 24.141160280988625 0 -2 0
4353 1451 1 -0.35 8.469400398069826 6.6610840834056555 21.326221361078872 -2 -4 4
4653 1551 1 -0.35 4.583022457119253 0.5352342155066059 15.571229887831501 -1 -2 -1
159 53 1 -0.35 3.735668277280085 6.788402585995374 16.237616690715967 -1 -3 -2
1434 478 1 -0.35 2.2011404211470937 5.675109599527524 19.16957501793532 3 0 3
3240 1080 1 -0.35 6.507860719699843 0.4583453450791471 18.637128982983985 4 -2 2
5815 1939 1 -0.35 1.5795613599777985 1.6238878348774128 20.755796721264744 -4 2 -3
1432 478 1 -0.35 2.028201354328842 6.6642587372518625 21.252909030214802 3 0 3
2815 939 1 -0.35 0.3032205956764159 9.236218901782708 16.944264342373252 0 1 0
1780 594 1 -0.35 8.280730608562857 2.081748047788353 25.97492590792495 2 -1 -1
3118 1040 1 -0.35 8.83921351365394 9.185536952942718 26.911088597388197 2 -2 -1
5640 1880 1 -0.35 1.8626066182546086 2.7449472330938893 17.428208406155466 -1 1 0
1781 594 2 0.7 9.230714868962881 2.6213251768021 26.350701168884882 2 -1 -1
5816 1939 2 0.7 1.7826616930536943 0.45430439171981285 20.620160783847247 -4 2 -3
1845 615 1 -0.35 7.9834003674388985 9.200521224306124 23.136242445169813 2 0 -1
2718 906 1 -0.35 9.107319194629898 4.712596158731716 13.843438883606991 -3 -2 -2
1615 539 1 -0.35 9.399098483054184 1.9190826921018018 22.11222673470239 4 4 2
1459 487 1 -0.35 17.75761174807244 2.512791173404087 25.6785005921771 -4 -1 2
5193 1731 1 -0.35 9.946209940820372 2.500794160934799 15.718140255141128 -2 -1 -1
1549 517 1 -0.35 11.771212083388612 8.414427949657291 15.08320583861299 -5 4 3
5406 1802 1 -0.35 17.904394178214513 9.15797104100015 21.319897473201745 -1 -2 -3
1471 491 1 -0.35 17.52602776328625 3.7244428215457237 18.302886168092606 -1 1 3
864 288 1 -0.35 13.838142136585558 4.069393103682289 24.999075637659423 1 1 2
5904 1968 1 -0.35 17.408254834513855 2.2868392903760144 15.19643166255602 0 -2 -1
4730 1577 2 0.7 12.843149877087535 5.116950549679805 21.648449701052954 -1 -1 -2
4731 1577 1 -0.35 12.298068446358041 4.108318261934789 21.82810394433781 -1 -1 -2
863 288 2 0.7 12.910896280605737 3.4167317976494003 24.663147377061556 1 1 2
4729 1577 1 -0.35 13.524373394626489 6.047121768919406 21.60534077432536 -1 -1 -2
2832 944 1 -0.35 11.025766957290141 5.185656356581235 18.633236778283774 3 1 -2
187 63 1 -0.35 15.44516419773827 6.873758643070336 23.978982401988812 2 5 3
862 288 1 -0.35 12.028512253308715 2.7579315136357576 24.35184026240577 1 1 2
2830 944 1 -0.35 9.905001325042235 5.878315913607865 16.739272475158742 3 1 -2
2831 944 2 0.7 10.38452549115763 5.446724675864312 17.698479901787916 3 1 -2
2765 922 2 0.7 14.968928280159776 6.048154185636413 18.738342044729453 -2 2 -1
2338 780 1 -0.35 12.725563344296331 3.308423594949891 17.15810638707511 4 1 1
2339 780 2 0.7 13.282637262653521 3.525431547799022 16.163007417862726 4 1 1
2766 922 1 -0.35 14.322778537727306 5.8486238071690515 17.7936721282042 -2 2 -1
2764 922 1 -0.35 15.50766252857898 6.325897428379762 19.73126530293119 -2 2 -1
1473 491 1 -0.35 16.74774235221915 1.5271062182113442 18.32670799254341 -1 1 3
5829 1943 1 -0.35 16.021461169710413 0.3626574961895027 21.99965265185474 2 3 0
2340 780 1 -0.35 13.733943651090922 3.7807165255683866 15.117112096211299 4 1 1
1472 491 2 0.7 17.204858086796648 2.6068461139799304 18.303187266471014 -1 1 3
188 63 2 0.7 16.249122216748063 6.052496828071336 24.08454304015823 2 5 3
189 63 1 -0.35 17.097070800484556 5.299269873246185 24.2594529158104 2 5 3
5650 1884 1 -0.35 17.618087939110445 5.405027298994175 14.910226392170797 2 3 -2
2244 748 1 -0.35 12.815000137206317 8.26147291261789 19.32502960330635 2 6 -3
5903 1968 2 0.7 17.8243178391809 2.499193173088014 14.13946575275462 0 -2 -1
5651 1884 2 0.7 17.37408563092488 6.3480284247918535 15.524866777595145 2 3 -2
4507 1503 1 -0.35 12.594069861923154 0.40174191364668843 21.552633358287817 1 1 -3
5652 1884 1 -0.35 17.073056777450887 7.319046939835159 16.113442076959394 2 3 -2
1551 517 1 -0.35 9.894407941471599 9.097441670620274 16.27561036281242 -5 4 3
1550 517 2 0.7 10.820175128809819 8.789461141759187 15.657633743962531 -5 4 3
1782 594 1 -0.35 10.201882182778872 3.1948551700107575 26.680899082088835 2 -1 -1
5689 1897 1 -0.35 14.963027993690343 8.803033926875111 14.202801579364667 4 1 0
5690 1897 2 0.7 14.986248102531441 9.223887760891472 15.252019197469622 4 1 0
2243 748 2 0.7 12.493636608442356 8.83895255675495 20.297299150842154 2 6 -3
2212 738 1 -0.35 12.605754696450596 9.211170662641877 26.91221031315021 1 3 -2
1460 487 2 0.7 18.35134275274623 3.0492817844995823 26.503438615646992 -4 -1 2
5405 1802 2 0.7 18.153216094424405 8.076508488974028 21.062142601199753 -1 -2 -3
5584 1862 1 -0.35 18.192888588263813 4.02919403173305 21.62105341988581 3 4 1
4936 1646 1 -0.35 4.952036845798077 11.650688831504702 15.062722195835091 0 1 1
4937 1646 2 0.7 5.614668377219805 11.123612617354148 14.298929535385609 0 1 1
2047 683 1 -0.35 3.6809247494760493 9.566461351406158 23.509564803714408 0 -1 -4
3119 1040 2 0.7 9.112134616131613 10.153122255022906 27.452638447575268 2 -2 -1
459 153 1 -0.35 2.346190269575678 17.446324741993223 15.560579767524127 2 -1 0
4935 1645 1 -0.35 4.123876899773841 18.09176796481853 20.363552033274857 0 -3 0
1843 615 1 -0.35 8.51611961106764 10.091270333988614 21.11922765404734 2 0 -1
4728 1576 1 -0.35 0.3897013134290944 14.610539041271572 24.6839296356701 -1 2 1
2500 834 1 -0.35 7.929252598907306 15.592443810448273 17.002630593255702 -1 6 -3
4933 1645 1 -0.35 4.077938316580532 18.01150266805662 18.059041152096885 0 -3 0
3744 1248 1 -0.35 2.907798405713298 15.979953762127757 26.543070671736675 -1 1 -1
2501 834 2 0.7 7.8766906081309545 15.369796710174969 18.14378948156171 -1 6 -3
2443 815 1 -0.35 5.466105217482539 13.485287661402753 23.97103701877678 6 1 -1
2445 815 1 -0.35 6.075680406158652 11.986664250707989 22.310348085407128 6 1 -1
2444 815 2 0.7 5.8391421832871435 12.7828552803968 23.113715616820954 6 1 -1
4129 1377 1 -0.35 2.546853371666238 10.816424207939976 25.907766261417738 5 -3 -1
5908 1970 1 -0.35 4.936848957450732 13.377731262636631 18.11099236033012 0 -3 0
1726 576 1 -0.35 2.9281821041948017 13.30055162174609 20.339680872939336 0 -1 5
5909 1970 2 0.7 3.9909388790156615 13.927655090251566 17.74829078971899 0 -3 0
1844 615 2 0.7 8.244098222543542 9.615082382042344 22.131664694896678 2 0 -1
1728 576 1 -0.35 3.3590601258408372 11.083029298162167 21.053016101361106 0 -1 5
2502 834 1 -0.35 7.768344449222063 15.188190764400648 19.2829272763938 -1 6 -3
3542 1181 2 0.7 0.47659300964854273 15.19347172000483 18.531699690156497 3 3 1
1332 444 1 -0.35 7.051730325710836 9.4692166193075 17.396376081986038 -1 0 4
5742 1914 1 -0.35 1.9057895121638688 15.721001844327525 21.856751942134665 3 1 1
5910 1970 1 -0.35 3.1691572687007983 14.65723280758304 17.365439377661296 0 -3 0
5741 1914 2 0.7 3.0228753914298414 15.636716564195112 22.007029539717383 3 1 1
5740 1914 1 -0.35 4.15940689586328 15.508250652329075 22.186300994483705 3 1 1
1727 576 2 0.7 3.1374231973929403 12.190175924466272 20.727656791657076 0 -1 5
4130 1377 2 0.7 2.351554338393708 9.990609944329549 26.696405898728255 5 -3 -1
3743 1248 2 0.7 2.8439587029041804 16.549125599709242 25.54055673116535 -1 1 -1
3742 1248 1 -0.35 2.8984778778697953 17.154386350298182 24.59522793270467 -1 1 -1
5999 2000 2 0.7 6.461268126801682 17.796608535099487 24.188473313768686 0 -1 2
5998 2000 1 -0.35 6.7984359669901115 16.699616650692658 24.487930562203335 0 -1 2
4934 1645 2 0.7 4.119364273411084 17.987381591347216 19.213240358635353 0 -3 0
5950 1984 1 -0.35 5.512787250736793 16.435650496311588 13.883896261760567 2 -2 -3
3543 1181 1 -0.35 0.9650634951094174 16.180880042379343 18.923414028110106 3 3 1
1331 444 2 0.7 7.252549543566878 10.60414748773197 17.597197881543703 -1 0 4
1330 444 1 -0.35 7.454379114818186 11.73511400122553 17.88350982622014 -1 0 4
458 153 2 0.7 3.33184045340273 18.089831139354693 15.373604110953966 2 -1 0
5425 1809 1 -0.35 9.178012176302309 16.625323496522224 21.98340246073795 1 4 0
5037 1679 1 -0.35 6.02079497758359 9.928107265071818 27.10144602970908 -2 1 0
861 287 1 -0.35 15.829858495529965 13.382488158265417 24.74223241670367 0 2 -1
2204 735 2 0.7 10.129310779797917 17.936415177316093 25.082434336325164 1 1 -1
3651 1217 1 -0.35 18.281786849895198 16.263023967287463 22.644853010774987 -4 2 3
5691 1897 1 -0.35 15.01549420862898 9.827890420628082 16.23388693841594 4 1 0
2581 861 1 -0.35 9.576675398775143 14.097821317820832 25.7252107451524 1 0 -2
1771 591 1 -0.35 10.38104543104678 11.861751280836454 22.785035204747942 0 0 0
2893 965 1 -0.35 14.286068048562411 14.322283840424356 14.530831835682234 3 1 4
3954 1318 1 -0.35 13.351449383931294 15.940522385946768 19.05393950328978 -1 -6 -1
985 329 1 -0.35 11.04286064835708 11.865537839941283 15.158188373023007 4 4 -1
4778 1593 2 0.7 16.601842357816974 9.932104898021128 18.573488398707596 1 -1 2
986 329 2 0.7 11.395151578802889 12.820844662612915 15.738260853409564 4 4 -1
1431 477 1 -0.35 15.130753542249039 18.368232955267224 16.30331302646779 0 -2 2
1430 477 2 0.7 15.50971604830988 17.277470060957253 16.420122987302477 0 -2 2
2582 861 2 0.7 10.731906188507537 14.117619011495423 25.643612541068826 1 0 -2
1772 591 2 0.7 11.151352082820239 12.318973229655713 22.02152983197041 0 0 0
3930 1310 1 -0.35 13.098691356993651 15.871209653152272 22.12627764013942 -4 -2 -2
987 329 1 -0.35 11.748079334057211 13.726429083207945 16.394446543512583 4 4 -1
5079 1693 1 -0.35 14.855493278294318 12.89731861282457 18.666920727126673 0 3 1
2242 748 1 -0.35 12.250593105173515 9.52355286549106 21.18209665790305 2 6 -3
1773 591 1 -0.35 11.87542435176247 12.848342832659469 21.29899534364936 0 0 0
2583 861 1 -0.35 11.857247340548692 14.18492162499235 25.48375558345001 1 0 -2
5426 1809 2 0.7 9.307673165882727 17.64903853629573 21.50697596561736 1 4 0
2203 735 1 -0.35 10.145259501504377 17.364467769539402 26.118489085590646 1 1 -1
5077 1693 1 -0.35 13.10764974454769 11.381241914884704 18.58438566553281 0 3 1
1429 477 1 -0.35 15.730682768527837 16.15771341703288 16.67782667206416 0 -2 2
700 234 1 -0.35 14.158901256191754 9.966920245930963 24.171033279086366 1 1 5
860 287 2 0.7 16.651669103055532 14.160827194068741 24.9167331360113 0 2 -1
5078 1693 2 0.7 13.984707921076538 12.151532716375367 18.56831702767415 0 3 1
4777 1593 1 -0.35 17.595053683670223 9.88997586883563 17.984943216667983 1 -1 2
3929 1310 2 0.7 14.10151048327467 15.309966512600482 22.139922811351013 -4 -2 -2
3928 1310 1 -0.35 15.092069797141802 14.757358198315888 22.0443791735095 -4 -2 -2
3953 1318 2 0.7 12.260029405082792 16.177159618359475 19.34208023977713 -1 -6 -1
701 234 2 0.7 14.21313017372677 10.702543187394987 23.259407950279865 1 1 5
702 234 1 -0.35 14.204271271214147 11.375144894304523 22.332296282628064 1 1 5
3952 1318 1 -0.35 11.183527864455343 16.365940912690625 19.68081591681247 -1 -6 -1
4779 1593 1 -0.35 15.55006140390243 9.921708405523765 19.08691004701317 1 -1 2
859 287 1 -0.35 17.40784109155608 15.000270792107411 25.057646999587373 0 2 -1
4960 1654 1 -0.35 11.097529877957651 15.700242125273046 14.60586945874648 1 3 -1
5137 1713 1 -0.35 3.2046701132531608 5.865051033725739 34.47877103391929 -3 3 2
5139 1713 1 -0.35 4.824242058110349 5.69629070469324 32.87892920959583 -3 3 2
5138 1713 2 0.7 3.9711585446868387 5.7299237593332615 33.641374163405445 -3 3 2
4697 1566 2 0.7 5.363559239955937 2.233593088786312 33.940115954656775 0 -1 1
4696 1566 1 -0.35 4.655778300393366 2.366157347173869 33.04061539775483 0 -1 1
385 129 1 -0.35 4.434437248919358 4.523912462002707 29.973004854129396 -1 0 -1
386 129 2 0.7 4.598828346352493 4.7202463752401185 28.846472234670284 -1 0 -1
4365 1455 1 -0.35 4.945945174517372 7.36865511200187 37.85804066924602 0 1 0
5595 1865 1 -0.35 5.848021269845084 1.0740309719210286 38.4450150088495 -3 0 0
4698 1566 1 -0.35 6.014829952242832 2.2029351079873276 34.89247822640302 0 -1 1
2240 747 2 0.7 0.4768651883710597 1.0554987535273166 35.318808760241566 3 2 0
4364 1455 2 0.7 5.126738610184346 6.257188920335571 38.063939959034634 0 1 0
5594 1865 2 0.7 6.149490092074576 1.489174739833687 39.45746784806894 -3 0 0
5593 1865 1 -0.35 6.495722243359701 1.9426815797621801 40.48609330810512 -3 0 0
4363 1455 1 -0.35 5.37350322610875 5.170020586120685 38.34778425613443 0 1 0
2312 771 2 0.7 1.3906432400888165 5.351996010049512 36.81103947469288 -4 5 2
3309 1103 1 -0.35 7.235916469658989 1.248935458354497 31.063841675346534 2 3 -2
4859 1620 2 0.7 7.866322138662176 5.26400176277336 36.50266084115144 -2 2 3
4858 1620 1 -0.35 8.825327719605701 5.426164748212189 37.16197368311817 -2 2 3
2311 771 1 -0.35 0.5820683054768138 6.118918481359595 36.478458046385626 -4 5 2
2313 771 1 -0.35 2.2741392288337114 4.734651616808358 37.26461556727562 -4 5 2
4860 1620 1 -0.35 6.896985552036123 5.104081048958477 35.863016768676744 -2 2 3
3308 1103 2 0.7 7.22038402868775 1.6919168205824333 29.995577624367392 2 3 -2
3307 1103 1 -0.35 7.234457023663926 2.15651207430622 28.92044305019414 2 3 -2
2241 747 1 -0.35 0.7918425963143205 1.7983243608306576 34.501868411506535 3 2 0
4634 1545 2 0.7 3.926650873909306 7.903827541115772 30.04932991340915 0 -2 -1
4633 1545 1 -0.35 3.5083802659322654 7.332096556173204 29.146965068615295 0 -2 -1
1109 370 2 0.7 8.098866337475622 8.520605154813373 33.44763279953711 4 2 0
1528 510 1 -0.35 8.822203753717243 2.537419263918509 35.21448888889014 -2 0 4
1108 370 1 -0.35 8.682303069476376 8.567896892395929 32.4603591390609 4 2 0
1529 510 2 0.7 9.265075328203304 1.6277370304536833 34.636709590322134 -2 0 4
5936 1979 2 0.7 9.164305013566237 3.8754441554378425 31.608325731760452 0 0 4
5937 1979 1 -0.35 8.238775174745717 4.24959922990677 31.024147253007488 0 0 4
4710 1570 1 -0.35 0.3973004481427275 8.979064806374664 38.399349940617505 2 -1 3
2955 985 1 -0.35 1.2448597817289522 2.975750662139825 27.96471348857994 2 1 -1
2954 985 2 0.7 1.8984263097691851 2.0763261363018763 28.311760540671024 2 1 -1
387 129 1 -0.35 4.725109901451392 4.898869979946928 27.6943878072311 -1 0 -1
1263 421 1 -0.35 0.3433771874741706 7.8608641814100615 30.856179150702868 1 -1 -5
5160 1720 1 -0.35 8.183510483006451 8.969448326282585 37.98598218986874 -1 1 2
4635 1545 1 -0.35 4.2491173415332275 8.497559549584171 30.971391612341733 0 -2 -1
1110 370 1 -0.35 7.426488130698117 8.491121651813948 34.40711151400876 4 2 0
5938 1980 1 -0.35 2.85865993086916 9.058566814328668 39.62950696497991 2 0 -1
2953 985 1 -0.35 2.6453725000124475 1.2493601936846068 28.74690094137699 2 1 -1
2752 918 1 -0.35 0.29292106255148553 3.606468037485079 39.71068535974309 2 -1 1
2239 747 1 -0.35 0.22390268084079423 0.3127683017074702 36.15811658758252 3 2 0
4131 1377 1 -0.35 2.1443279417928567 9.155703946329432 27.482781658543317 5 -3 -1
1765 589 1 -0.35 9.80107678294158 5.947426564166592 29.142668946128424 -2 1 -1
2214 738 1 -0.35 14.231688251914488 8.94185437343145 28.54150784456581 1 3 -2
1766 589 2 0.7 10.695805245774068 5.848480587546749 29.880765674830236 -2 1 -1
4987 1663 1 -0.35 16.923444985852896 2.996006085028856 35.427322637102 -2 0 2
5935 1979 1 -0.35 9.995314162349086 3.545408554272154 32.35566781138075 0 0 4
4891 1631 1 -0.35 11.543336472910749 4.678017317916275 35.637816342514064 -1 4 0
4148 1383 2 0.7 10.641239792568383 0.5577995962431738 40.33655453583989 1 1 3
4147 1383 1 -0.35 9.471306120353836 0.7298773728844574 40.21889359719311 1 1 3
4892 1631 2 0.7 11.94968435390929 3.6549296619843292 35.271686544062604 -1 4 0
4893 1631 1 -0.35 12.377813865300572 2.6240405526530206 34.917732540068926 -1 4 0
4042 1348 1 -0.35 15.691497568364342 5.675166051640278 35.10972829430613 5 -2 -5