LAMMPS data file via write_data, version 2 Aug 2023, timestep = 11510000, units = real

6000 atoms
2 atom types
4000 bonds
1 bond types
2000 angles
1 angle types

0 29.0941446849756 xlo xhi
0 29.0941446849756 ylo yhi
0 193.960964566504 zlo zhi

Masses

1 15.9994
2 12.0107

Pair Coeffs # lj/cut/coul/long

1 0.156989 3.05
2 0.0536545 2.8

Bond Coeffs # harmonic

1 1028.27 1.16

Angle Coeffs # harmonic

1 55.96 180

Atoms # full

4673 1558 2 0.7 4.301451637684327 1.743716869005545 2.5830904697138273 1 -3 -1
4875 1625 1 -0.35 1.5832288769755962 6.296006700675448 8.389575637149926 -4 1 2
5608 1870 1 -0.35 1.4475313051657397 4.750959357865451 33.91185637908555 3 1 -2
4874 1625 2 0.7 2.6015073940486597 6.096159392270057 7.855380351043517 -4 1 2
4873 1625 1 -0.35 3.573975590603193 5.759692167520174 7.271094136244382 -4 1 2
1206 402 1 -0.35 0.1076448927531454 3.7484132248328765 8.404019251967307 0 0 1
1168 390 1 -0.35 6.762941127472311 9.332219534194484 45.68703919424195 1 2 -1
4672 1558 1 -0.35 3.7203065426556394 2.7477460981123567 2.4932835706155503 1 -3 -1
4953 1651 1 -0.35 2.5144225322793847 5.347272503625097 3.0636292495740736 -1 -8 -3
3014 1005 2 0.7 5.660004468505419 8.44767853816337 7.620176612692858 3 0 -2
1240 414 1 -0.35 3.94856803420012 6.595806051915154 0.33795195550846224 4 -1 0
191 64 2 0.7 9.175124577273516 1.0885884157715222 5.977264644212787 -5 0 -2
1813 605 1 -0.35 8.877118730052787 4.157863393932428 1.9688630468525723 1 -4 -1
4674 1558 1 -0.35 4.858893889549557 0.7338838664502487 2.645353804184768 1 -3 -1
1814 605 2 0.7 8.165981358672925 4.384546596638965 2.858169266078674 1 -4 -1
1815 605 1 -0.35 7.55859748418792 4.508888459144879 3.8289618901736233 1 -4 -1
192 64 1 -0.35 9.262007502768045 0.8537103442049908 7.139809919273313 -5 0 -2
3143 1048 2 0.7 0.6431231742463901 5.133484963287362 27.996984198804984 -1 3 1
3015 1005 1 -0.35 6.5446323752533235 8.922788253835652 7.098786597188115 3 0 -2
4952 1651 2 0.7 1.9528971792793994 4.641849687005547 3.767254966558145 -1 -8 -3
1241 414 2 0.7 4.853106693088661 6.418375126710113 1.058042133648494 4 -1 0
4951 1651 1 -0.35 1.4333898457682859 3.9528660795756743 4.563973628180993 -1 -8 -3
1242 414 1 -0.35 5.821902359144187 6.333774828874689 1.7376573206533237 4 -1 0
3239 1080 2 0.7 6.9790113543569 2.8047220803180544 7.926972868586854 6 -3 2
3238 1080 1 -0.35 7.311022302954033 2.8883377598627122 9.030048782596294 6 -3 2
3240 1080 1 -0.35 6.80596593252878 2.5906573440109533 6.782949177677945 6 -3 2
704 235 2 0.7 0.5779565859026338 1.7776541643693213 12.304329858686488 3 0 0
1491 497 1 -0.35 2.481039520900886 9.131276149338634 10.940172808116857 3 1 -1
703 235 1 -0.35 1.3040592922514165 2.6198420277371803 12.679225012454614 3 0 0
369 123 1 -0.35 6.794468588856691 4.105844884388735 13.673228214218453 1 0 3
368 123 2 0.7 7.551822608017656 3.241095167941701 13.576778932533403 1 0 3
3840 1280 1 -0.35 1.1575189640854697 0.8779050257009738 26.18589074668695 -1 1 1
1572 524 1 -0.35 2.6061686248907843 2.4677451758268734 10.136472373101384 6 5 -2
1571 524 2 0.7 3.083153351731227 3.5193196464909553 10.235696630108526 6 5 -2
1570 524 1 -0.35 3.5080040856467223 4.587063044792647 10.248287948231498 6 5 -2
3997 1333 1 -0.35 7.666451830875427 0.2960575862889009 10.720960226791957 2 -1 3
3998 1333 2 0.7 8.753369485077652 0.3897431207680456 10.370349300312572 2 -1 3
611 204 2 0.7 3.8834863740565995 1.016644345119989 13.721114628176776 2 4 2
610 204 1 -0.35 4.6265077504169465 1.8637586912195465 13.972365793133513 2 4 2
5524 1842 1 -0.35 8.916952005998835 8.208630032361654 28.655341453911557 -1 4 -1
2178 726 1 -0.35 0.35962829172246924 8.047634481918726 16.02225861957817 2 -3 -2
3026 1009 2 0.7 1.0252211013207533 2.244674165530086 20.132867555305868 -1 -2 1
5016 1672 1 -0.35 3.524074129711876 4.903264903157836 13.554085068782138 -1 1 2
612 204 1 -0.35 3.066653110078444 0.1871796379478579 13.562647188259772 2 4 2
5015 1672 2 0.7 4.361617171532061 5.661253907415871 13.321517002941826 -1 1 2
367 123 1 -0.35 8.242223107004332 2.338773503531715 13.462134763886352 1 0 3
5014 1672 1 -0.35 5.2851306236789615 6.3599060712901645 13.17141105559268 -1 1 2
1490 497 2 0.7 2.249146081527557 9.24331867599872 9.78493521399583 3 1 -1
1704 568 1 -0.35 6.369775301381622 6.907350373739204 16.799902996759776 5 3 3
5609 1870 2 0.7 1.091125456444392 5.570126316081132 33.196893411043206 3 1 -2
2177 726 2 0.7 0.9338886851378665 8.10127428505775 17.053344067492173 2 -3 -2
2297 766 2 0.7 8.756585431955825 3.978844713221425 18.35497711958917 -2 0 3
5825 1942 2 0.7 8.244348397835545 0.3112256064649359 21.076718289113185 -1 3 0
2176 726 1 -0.35 1.558079624492247 8.251451246574701 18.043090591895393 2 -3 -2
963 321 1 -0.35 3.629201611937296 7.74252389345945 24.846568379672423 -2 -2 3
1702 568 1 -0.35 4.224600435918798 7.105058450962239 15.99326823770874 5 3 3
1703 568 2 0.7 5.325657197083965 7.000312628428036 16.29850118463639 5 3 3
5543 1848 2 0.7 3.899210417083803 1.8186175258465154 22.647469777067112 4 1 2
4316 1439 2 0.7 7.953629393440279 8.059198024929692 20.392176770500384 -1 2 3
4317 1439 1 -0.35 8.32893250263817 7.009363454684286 20.113770304211922 -1 2 3
4315 1439 1 -0.35 7.4797373881899025 9.092890238207497 20.63119345384807 -1 2 3
5542 1848 1 -0.35 4.295142259552251 2.794431175270429 22.203360445358598 4 1 2
2121 707 1 -0.35 3.329520025157853 6.136213413389523 21.699025895330692 -1 2 -1
5544 1848 1 -0.35 3.364448646821393 0.8376449577546297 23.046256340340772 4 1 2
5698 1900 1 -0.35 0.4125491397203545 2.2762812383472686 36.61073730719489 1 1 0
3025 1009 1 -0.35 1.9559105729971165 1.5537892895456549 20.012858641707577 -1 -2 1
2119 707 1 -0.35 4.623869613139053 6.095827998094183 19.770355324438018 -1 2 -1
2120 707 2 0.7 4.052588698569475 6.1060019751505115 20.75744712134173 -1 2 -1
2296 766 1 -0.35 8.743190825759456 3.3566910991747974 19.294338698037485 -2 0 3
5824 1942 1 -0.35 8.06082876421237 0.37882062099727765 22.2301613642197 -1 3 0
1653 551 1 -0.35 8.889380104782681 4.298372671886743 22.399729193166152 0 -3 0
1651 551 1 -0.35 9.075658873221913 6.2798090799795485 23.59944418970293 0 -3 0
1652 551 2 0.7 8.998450741956772 5.312211347767009 22.983083607201962 0 -3 0
2764 922 1 -0.35 9.173187464737145 3.980455688118742 32.170170091984296 -4 1 -1
2298 766 1 -0.35 8.611446318829186 4.558356154173279 17.357419733331895 -2 0 3
961 321 1 -0.35 1.3623366317586125 7.937731425119595 24.50712615324154 -2 -2 3
5610 1870 1 -0.35 0.7462143072234628 6.2574990188048645 32.34211297940337 3 1 -2
801 267 1 -0.35 1.0403826870130668 1.5627710952211036 47.4698547236666 8 -3 0
962 321 2 0.7 2.5192544929289373 7.724249914348619 24.628545504715174 -2 -2 3
2479 827 1 -0.35 5.803960631051982 6.691969759094747 47.21455721619725 4 -1 1
4216 1406 1 -0.35 9.0422133890323 2.5285272464892006 28.450782366256817 -2 2 2
4168 1390 1 -0.35 1.7516073625113036 4.1307880649735065 0.5393812730507146 -1 3 0
190 64 1 -0.35 9.111889297212118 1.349424303579296 4.830028526551496 -5 0 -2
3142 1048 1 -0.35 1.7317065091609327 4.991912636654678 27.642350210680533 -1 3 1
3013 1005 1 -0.35 4.708608863835166 8.029750196437625 8.1474437514526 3 0 -2
3838 1280 1 -0.35 0.20176985848665815 1.9838238019296495 27.957446892608715 -1 1 1
113 38 2 0.7 6.455900873432956 7.328753415229351 24.460172518655398 3 -1 -1
112 38 1 -0.35 6.979107784986803 8.3877827741868 24.515746033108766 3 -1 -1
2035 679 1 -0.35 5.96087472158328 3.5795639426076837 26.043695783952234 0 4 0
114 38 1 -0.35 6.018674625342336 6.275894071398933 24.37811664624047 3 -1 -1
2037 679 1 -0.35 4.072034163104095 4.69682132096883 25.378577938663593 0 4 0
2036 679 2 0.7 5.012827059653861 4.130792502605675 25.70691241575201 0 4 0
5525 1842 2 0.7 9.652207707906113 8.110053581325955 27.73567687905727 -1 4 -1
669 223 1 -0.35 4.354779958478451 6.180600277040461 30.375310245989994 -1 0 2
668 223 2 0.7 4.547285397984439 5.722726978902455 29.323308224673312 -1 0 2
667 223 1 -0.35 4.835898174799751 5.184837455177135 28.37145443127629 -1 0 2
5320 1774 1 -0.35 4.02880352384282 9.56505500792861 30.11050386163179 2 4 0
535 179 1 -0.35 9.674094519947877 8.751711549926389 47.52347313966848 -5 2 0
3839 1280 2 0.7 0.5841516725982572 1.3634644165309313 27.07252230900082 -1 1 1
3733 1245 1 -0.35 3.9061735576130494 7.975957034174652 34.36353022699886 -1 -1 -1
3734 1245 2 0.7 3.0875266613193078 8.43665723674892 33.683756192978294 -1 -1 -1
800 267 2 0.7 1.6569984308573342 2.541445725718255 47.32584364001366 8 -3 0
2716 906 1 -0.35 2.859514058925998 4.450908669770999 36.48481203555829 -4 1 -2
4988 1663 2 0.7 7.444865940172834 6.665726550294003 38.764902726451965 -3 -2 2
4989 1663 1 -0.35 6.314883003895612 6.806024370368207 38.88173646423037 -3 -2 2
3885 1295 1 -0.35 4.7662582192233875 1.835786720946796 34.15719607679656 -3 2 5
3735 1245 1 -0.35 2.291003892248924 8.837327462500454 32.94951813249684 -1 -1 -1
5538 1846 1 -0.35 7.106749319514393 3.7338308466381482 47.37661777410697 1 2 2
3883 1295 1 -0.35 3.0696331571840565 2.354273975112563 32.64433385313765 -3 2 5
3884 1295 2 0.7 3.9222796650520513 2.114832873201383 33.390649972457304 -3 2 5
2765 922 2 0.7 9.186571316759403 3.891155699570714 33.330383482587614 -4 1 -1
2766 922 1 -0.35 9.11136670797889 3.7243646363155936 34.498354158241085 -4 1 -1
2718 906 1 -0.35 1.5733391586429417 4.687383472504615 38.41766615538887 -4 1 -2
3251 1084 2 0.7 5.28073396657355 3.435021174385071 39.94983029460616 -5 -4 3
3252 1084 1 -0.35 6.103502720047524 2.673358616180067 40.261330277931556 -5 -4 3
3250 1084 1 -0.35 4.4857973031480585 4.186075761065393 39.529385952460785 -5 -4 3
2717 906 2 0.7 2.2398771992196655 4.5618872890918 37.47673854556323 -4 1 -2
4987 1663 1 -0.35 8.586850869087261 6.456281307735981 38.52769623605194 -3 -2 2
2759 920 2 0.7 3.353012784890951 8.086701542699657 38.691191996459935 0 -3 1
2758 920 1 -0.35 2.9284512073922344 8.202531981314761 37.57996691904907 0 -3 1
2760 920 1 -0.35 3.8178405598112484 7.889617951286717 39.764815286535054 0 -3 1
2481 827 1 -0.35 3.624922148813404 7.089101953039232 46.60626127925855 4 -1 1
554 185 2 0.7 1.2171686560187553 1.9481588020385439 40.71109155319057 -2 3 -2
1894 632 1 -0.35 6.810014405285283 0.31294595642714573 35.82494509452182 0 2 5
5536 1846 1 -0.35 5.5425412229795805 4.109774151220211 45.75562381097265 1 2 2
5961 1987 1 -0.35 1.409579647270894 5.995554578225983 43.829162517866514 1 -2 0
1747 583 1 -0.35 8.023900748542367 0.26873972469388113 39.923609002403936 4 5 -2
5960 1987 2 0.7 1.2983275157360474 7.123654212004315 43.57238340148922 1 -2 0
2958 986 1 -0.35 4.912093912766314 0.8116031995276677 41.95561802349294 0 1 -3
553 185 1 -0.35 1.1133141058350486 2.9296037635276684 41.29898923562969 -2 3 -2
555 185 1 -0.35 1.4517629185303373 1.0034044387357564 40.060668708918946 -2 3 -2
2957 986 2 0.7 5.961619280088574 1.0581752910460738 42.336133217421164 0 1 -3
2058 686 1 -0.35 7.163614268807262 0.871455827747395 32.16054126971814 1 -4 2
2956 986 1 -0.35 7.002634151625753 1.2196926884183938 42.76087706768387 0 1 -3
2480 827 2 0.7 4.704532785266173 6.848924898716595 46.93029085790446 4 -1 1
5537 1846 2 0.7 6.333450557766349 3.9225490702261085 46.56988685933235 1 2 2
799 267 1 -0.35 2.1878481813424697 3.5660378480990285 47.25452579914724 8 -3 0
148 50 1 -0.35 4.578042859234855 9.373185748374867 43.745786698197136 -2 2 -2
5959 1987 1 -0.35 1.3001002222329028 8.269855817631244 43.481729449530626 1 -2 0
4217 1406 2 0.7 9.329196091788821 1.6071662489988137 29.084911542005695 -2 2 2
76 26 1 -0.35 8.957987300740562 1.5602372332601786 25.768477543340545 -1 2 3
1489 497 1 -0.35 2.1546896746217294 9.483603459711182 8.661392044622 3 1 -1
1170 390 1 -0.35 5.551535619090944 9.57403594035641 47.69417466228572 1 2 -1
1169 390 2 0.7 6.142243736514658 9.449651843825851 46.676645329002994 1 2 -1
4496 1499 2 0.7 1.9572171063507111 9.243508925364923 48.13852137381382 1 7 1
5826 1942 1 -0.35 8.465056458615884 0.33493898525947396 19.913500979340032 -1 3 0
2057 686 2 0.7 8.15753184939407 0.359291947794452 32.440825686751154 1 -4 2
4567 1523 1 -0.35 1.824448572845232 1.1618648073674087 0.0335595561500492 -1 3 0
77 26 2 0.7 9.646459646429392 2.4026873838065645 25.360096493079034 -1 2 3
3027 1009 1 -0.35 0.07743646491960021 2.8705434719295715 20.362300982328865 -1 -2 1
2664 888 1 -0.35 0.061025979347199666 8.133051117047811 29.32913933895004 1 1 -3
3759 1253 1 -0.35 3.7549157277745238 9.67510314962839 22.13784168635012 2 -5 2
4853 1618 2 0.7 1.6306600178165784 6.392902737706359 49.96587095032807 5 0 0
4852 1618 1 -0.35 1.7931174456024597 6.657662152856489 51.088176585783586 5 0 0
3833 1278 2 0.7 8.084465272018287 1.676758689909574 53.18425959611738 -5 0 -3
3834 1278 1 -0.35 6.970841541692276 1.7382215247931252 53.139190320429186 -5 0 -3
3832 1278 1 -0.35 9.24425778684308 1.574936809119601 53.30445751364218 -5 0 -3
4854 1618 1 -0.35 1.5166473333683084 6.0343159613344 48.860177503803996 5 0 0
470 157 2 0.7 7.200231818056233 1.0771571408900624 96.81262526876736 -2 -2 5
1345 449 1 -0.35 8.643870908519267 4.590738404852315 50.65569615885703 3 3 3
1992 664 1 -0.35 0.2826256054030157 0.3446688850981897 82.78873556600857 -3 -2 -1
574 192 1 -0.35 4.791199041772343 7.782975567420594 53.92317129218697 0 1 -2
575 192 2 0.7 4.806677698803159 7.163903600285986 54.899345207896545 0 1 -2
1347 449 1 -0.35 6.8245755580500616 4.885399224094718 52.115426772107185 3 3 3
1346 449 2 0.7 7.747052778384287 4.783384932927927 51.394949825144636 3 3 3
1725 575 1 -0.35 1.662331742508188 2.7715543480788267 55.07809502125352 3 -2 -3
5299 1767 1 -0.35 8.800628944879454 7.384188274009105 53.787472984789915 0 0 -3
1724 575 2 0.7 2.725202515233454 2.325340299623814 55.120501800383515 3 -2 -3
2162 721 2 0.7 5.272331800081091 2.1591698023295627 49.57707901572289 -4 -3 3
5226 1742 1 -0.35 2.0036833797436833 1.5615335527313081 50.945966266811936 9 4 0
5225 1742 2 0.7 1.9133805511753699 0.4064216247516191 50.87089165464822 9 4 0
3683 1228 2 0.7 4.741832241413015 9.036738937477834 51.087811635589425 0 1 0
3355 1119 1 -0.35 1.6838630653811453 6.356577936990599 56.9077954229377 1 -4 -1
5301 1767 1 -0.35 7.4977961102835815 9.170347498689013 53.04530935854552 0 0 -3
5124 1708 1 -0.35 0.6542274380397304 2.247793166837387 61.29340380919493 4 1 -2
5300 1767 2 0.7 8.190932843387698 8.30340045656121 53.40855784465511 0 0 -3
1048 350 1 -0.35 8.12015116621864 0.9062623347817287 93.89886819058191 -2 6 1
471 157 1 -0.35 6.292498981135937 1.754905650999744 96.64380972487213 -2 -2 5
3684 1228 1 -0.35 5.153978772165396 8.108168636429609 50.55969270719793 0 1 0
2161 721 1 -0.35 5.836508338438646 2.647367781345333 50.48704633255866 -4 -3 3
576 192 1 -0.35 4.657613666167787 6.524241199799643 55.847172221536916 0 1 -2
3378 1126 1 -0.35 8.772782473689452 0.3981566652492919 56.68308540811807 1 -5 -3
32 11 2 0.7 1.0429707345552854 9.308848774148716 84.10851797503398 2 -2 4
3664 1222 1 -0.35 3.8128717545445636 6.253286575931826 59.494222305777576 3 4 -2
3666 1222 1 -0.35 4.94866349720044 7.305679993830822 61.20142441411722 3 4 -2
3665 1222 2 0.7 4.3700757045908345 6.805026416476041 60.33986038257624 3 4 -2
567 189 1 -0.35 4.257779211023305 3.240698378681643 62.201853833136816 2 6 3
566 189 2 0.7 3.6304906458096102 2.835588543190098 63.06582283760093 2 6 3
1723 575 1 -0.35 3.750260228915125 1.8172644656457535 54.99176139176555 3 -2 -3
3356 1119 2 0.7 0.6251614964876048 6.477823999823158 57.30217226913313 1 -4 -1
1373 458 2 0.7 4.761834952391134 3.4369752457888585 58.608159442133854 0 1 0
4208 1403 2 0.7 2.1958002098827683 8.57762607543896 63.436132060151344 3 0 -3
4207 1403 1 -0.35 2.3806207061437834 8.07586240686916 62.39314580973753 3 0 -3
1374 458 1 -0.35 5.7239199005065675 4.057274270835128 58.554577228809386 0 1 0
1372 458 1 -0.35 3.7864523724044594 2.803973328358875 58.63374957662194 0 1 0
2756 919 2 0.7 7.8788836625831165 1.060458953031077 60.49842515452812 0 5 0
3376 1126 1 -0.35 8.960274376178866 2.742867947813311 56.499130315942324 1 -5 -3
5122 1708 1 -0.35 0.5019782244042346 0.5144545061254985 59.738891038065766 4 1 -2
2627 876 2 0.7 0.7330455352747102 4.6290141311971675 81.77242429921792 -4 1 -1
2755 919 1 -0.35 6.82950462716993 1.363312834600368 60.942143586974396 0 5 0
565 189 1 -0.35 2.908947279980741 2.4529618645364497 63.84851337957295 2 6 3
4311 1437 1 -0.35 8.584574136076736 3.600945320028198 63.67440538540998 0 -4 4
2308 770 1 -0.35 0.6461959761599565 5.882647108424161 60.52559652882738 -1 2 2
3227 1076 2 0.7 2.3507800580348337 1.1888729420564772 92.1579124162543 -2 2 0
3377 1126 2 0.7 8.885537128336235 1.5733470450661955 56.560143548309256 1 -5 -3
2757 919 1 -0.35 8.906689054548824 0.8766258358944284 59.954794769381294 0 5 0
5428 1810 1 -0.35 0.01197491732272789 7.147868425012965 75.46681407397945 0 6 -2
5123 1708 2 0.7 0.6488517644121224 1.4319751101725784 60.43770399813581 4 1 -2
2402 801 2 0.7 1.1660502189418298 0.09642156240998581 64.66729844045167 -1 -1 0
5295 1765 1 -0.35 5.497842696582648 0.18024646416849555 64.2989988234699 3 3 -2
2401 801 1 -0.35 1.48649011695349 0.3106420958972608 63.573815304240895 -1 -1 0
4398 1466 1 -0.35 0.8175166976238678 1.1629798561619895 72.70186787198982 0 -4 -2
3228 1076 1 -0.35 2.882749900078264 0.2429235188221235 92.53766227241013 -2 2 0
3819 1273 1 -0.35 5.718009037831155 0.9664772250037009 71.12378893370425 -2 -2 -4
1811 604 2 0.7 8.160727348365022 8.01676527106472 64.9176780511587 -1 -1 -2
1810 604 1 -0.35 8.818074742262024 8.334154008605244 64.02816233093357 -1 -1 -2
5564 1855 2 0.7 4.102220306583485 6.870171193923555 67.13917573570008 0 -3 1
5565 1855 1 -0.35 3.969680201152886 5.8826272586357975 66.53418242926485 0 -3 1
4310 1437 2 0.7 9.232068161593332 4.382746936834556 64.20336656636556 0 -4 4
300 100 1 -0.35 8.730423340873473 4.856967948348029 69.04857815108738 5 3 -3
299 100 2 0.7 7.872064724164333 5.66300187993008 69.02248340265378 5 3 -3
298 100 1 -0.35 6.976400498361982 6.401157317224827 69.0639424333059 5 3 -3
5545 1849 1 -0.35 2.5620467206106805 3.7579598712509963 67.87997065466367 -2 -3 -1
5546 1849 2 0.7 2.8288673433857925 2.743124011119441 67.38803282319475 -2 -3 -1
5563 1855 1 -0.35 4.225506049646974 7.840703977569993 67.74634494986304 0 -3 1
1050 350 1 -0.35 5.98340367388914 0.7289003461751183 93.0490716630113 -2 6 1
3817 1273 1 -0.35 3.8339877229977457 2.2363624665479094 70.78055276320524 -2 -2 -4
3818 1273 2 0.7 4.807459735231536 1.5948658470575987 70.89129185570941 -2 -2 -4
5547 1849 1 -0.35 3.105406214028704 1.7481047740174627 66.89038790756486 -2 -3 -1
1510 504 1 -0.35 7.168639019895774 3.7740604313995183 71.40618580839086 3 0 0
2221 741 1 -0.35 7.785855652530612 2.0010372369783247 68.1869852439015 -3 -1 -1
1812 604 1 -0.35 7.4892797331748024 7.619203363512007 65.78453693797753 -1 -1 -2
2222 741 2 0.7 8.908941076217975 1.9398143385926314 68.43874595325545 -3 -1 -1
1511 504 2 0.7 7.586106574700308 3.8244983163520634 72.51457445674079 3 0 0
5306 1769 2 0.7 7.850187143377497 5.516001567759488 92.77290161251777 4 -2 0
4224 1408 1 -0.35 7.414027258690634 5.621648053686445 75.9468272354105 3 2 1
3116 1039 2 0.7 0.6319226139395419 0.430571816897628 69.98162741500165 2 0 3
2884 962 1 -0.35 5.72765578014194 2.3963605220793665 75.51045735750208 5 -1 -3
4397 1466 2 0.7 0.778216640728393 2.2851993232910903 72.90891658714955 0 -4 -2
836 279 2 0.7 9.66337996100618 6.913190655264584 73.70267522716628 -1 -1 0
3723 1241 1 -0.35 6.7423095831664455 5.1388293775416045 81.84627287746089 1 2 -3
835 279 1 -0.35 9.318599764070132 6.209473182678701 72.85067228553407 -1 -1 0
2885 962 2 0.7 4.81788423896644 3.0782864145395505 75.3216153688635 5 -1 -3
33 11 1 -0.35 1.8864821499697497 8.97941565389586 84.83382998543635 2 -2 4
5919 1973 1 -0.35 2.8288707851008468 2.5427928455384126 77.87793956296314 0 -4 -3
5918 1973 2 0.7 1.9547049744078786 1.9819814876871333 77.37273056283632 0 -4 -3
4396 1466 1 -0.35 0.8183902519450558 3.432549726382757 73.15183133558874 0 -4 -2
5917 1973 1 -0.35 1.1343173503440678 1.394269525456787 76.8043233534996 0 -4 -3
2137 713 1 -0.35 5.063071871636051 5.623123947605954 72.48641556568626 -2 -2 -1
2138 713 2 0.7 5.07887804759087 6.770503255040093 72.39865043054596 -2 -2 -1
5853 1951 1 -0.35 8.530548432654227 9.255101460363369 72.11838322482649 2 -2 -4
5847 1949 1 -0.35 7.166302882080858 8.59260604144216 75.75495565210238 -3 2 2
1512 504 1 -0.35 8.007472397496445 3.8388017986589 73.6080388176425 3 0 0
5328 1776 1 -0.35 8.423971719540496 4.342170533445158 88.70795745001907 -7 2 -2
3876 1292 1 -0.35 4.278333316566662 6.804976998103874 78.74456687944475 1 -2 2
2139 713 1 -0.35 5.0951178330958795 7.935781232959575 72.32851213765416 -2 -2 -1
3875 1292 2 0.7 4.395580855147703 5.6485253862491955 78.97493489771962 1 -2 2
973 325 1 -0.35 0.6439806774497702 0.45517989068180686 79.64975576364976 0 0 2
3874 1292 1 -0.35 4.571591883663495 4.520390379217857 79.18599835022516 1 -2 2
5619 1873 1 -0.35 2.1367350405086682 9.344056754917768 79.41127844820639 0 3 -3
2886 962 1 -0.35 3.902951560261539 3.767643970522071 75.13742075091878 5 -1 -3
5618 1873 2 0.7 1.4980484634582745 8.658891744849736 80.08890200254545 0 3 -3
4088 1363 2 0.7 3.3503207811184974 9.615593995022234 74.81041719276614 4 0 2
4089 1363 1 -0.35 3.7689492572423635 8.620999906094745 75.22638098523133 4 0 2
4222 1408 1 -0.35 8.007136869705525 5.060934328272161 78.10818943448643 3 2 1
4223 1408 2 0.7 7.630627228402774 5.365364350709597 77.06248878680762 3 2 1
2280 760 1 -0.35 4.849178325202703 0.01507323343073908 84.6536933854113 -1 1 2
1295 432 2 0.7 5.4107339298199735 2.4804960004245196 88.7621459481804 -1 -3 4
5333 1778 2 0.7 9.193518619915336 7.611912498615999 87.40582056349679 -4 -2 3
5334 1778 1 -0.35 8.787981970089817 6.655545508654242 86.83980334533072 -4 -2 3
3722 1241 2 0.7 7.5731060145448 4.355091647349372 81.60935679254808 1 2 -3
3721 1241 1 -0.35 8.368115058526538 3.584617591026078 81.2515405020021 1 2 -3
767 256 2 0.7 6.949289260826006 8.167264916136338 81.67505025953717 -1 -2 -3
766 256 1 -0.35 6.5116571841517095 8.390301021361989 80.63583885414806 -1 -2 -3
3117 1039 1 -0.35 1.0190498148650429 1.5244396969439498 69.86128985979197 2 0 3
1991 664 2 0.7 1.3660050843177738 0.010689620131425461 83.08602031276581 -3 -2 -1
136 46 1 -0.35 0.8507774641077834 2.0363416590497105 85.65084289761063 -3 2 1
2321 774 2 0.7 4.674444330754413 2.9616112218311414 84.0632911254695 -1 3 -5
2320 774 1 -0.35 5.741334704858464 2.938843833442791 83.59971033986179 -1 3 -5
5617 1873 1 -0.35 0.7997505653419662 7.940324488599754 80.73215291611739 0 3 -3
469 157 1 -0.35 8.104905898154083 0.3721896193007511 96.88970028831083 -2 -2 5
5592 1864 1 -0.35 5.535695863104608 6.420259459532413 85.76545677744409 2 2 1
1228 410 1 -0.35 1.4097106432383824 5.010763314069261 87.42547428325403 -2 3 0
768 256 1 -0.35 7.502341445927145 7.870368583898199 82.68177291650619 -1 -2 -3
1230 410 1 -0.35 2.1065821983514077 6.749505096475092 88.79482163084977 -2 3 0
1229 410 2 0.7 1.7286238911955465 5.91899766783883 88.0823587783614 -2 3 0
2628 876 1 -0.35 1.7355178548981087 4.039132747753631 81.66935562501504 -4 1 -1
1505 502 2 0.7 5.799078080918109 7.255910482578443 89.35611164879897 3 0 0
2322 774 1 -0.35 3.60436272180961 3.0948443126265595 84.50125139558345 -1 3 -5
5591 1864 2 0.7 5.486430545351238 7.441268180822305 85.26735765054518 2 2 1
5307 1769 1 -0.35 7.320722332249125 4.985455573625995 93.67370017734169 4 -2 0
5161 1721 1 -0.35 6.332332732362046 0.5671771086117107 81.58309503232857 -3 -3 0
5162 1721 2 0.7 7.022068969584062 0.2529847622889405 82.49372359676236 -3 -3 0
137 46 2 0.7 0.1736878924190509 2.259355860909569 86.55960628709157 -3 2 1
1296 432 1 -0.35 5.023144250918556 3.143144878056767 87.95534888574522 -1 -3 4
5590 1864 1 -0.35 5.339799553640123 8.463911495606078 84.7624837505748 2 2 1
1506 502 1 -0.35 5.841205150639436 8.162612129404366 88.6776106044965 3 0 0
5211 1737 1 -0.35 5.898773639533894 9.690095908603574 57.193546660474325 1 0 0
1294 432 1 -0.35 5.918209524559542 1.8031228301423914 89.57807672621952 -1 -3 4
3149 1050 2 0.7 2.7205533792209438 6.949060755898677 93.80423330680694 -3 -3 -3
3226 1076 1 -0.35 1.8724795917783894 2.154823622474297 91.75755283634432 -2 2 0
1292 431 2 0.7 4.489697157744201 3.382059624826519 93.4172065061446 0 1 -1
1293 431 1 -0.35 4.643022112495421 4.1512660639855 92.52605534304926 0 1 -1
5305 1769 1 -0.35 8.431476707252228 6.004594718794109 91.8734992542909 4 -2 0
1049 350 2 0.7 7.067298104475313 0.8126633337169115 93.46786362482855 -2 6 1
1504 502 1 -0.35 5.7884896328361775 6.361875046681946 90.05955941230886 3 0 0
4932 1644 1 -0.35 8.61725668988203 7.6959481868816555 58.03466478009999 -1 2 -1
5128 1710 1 -0.35 1.787358672369238 8.683090185359971 58.79971223530543 -2 1 -1
3150 1050 1 -0.35 1.7519427541901273 6.387367028577742 94.06787972641843 -3 -3 -3
3148 1050 1 -0.35 3.696300582035281 7.509538419569465 93.68675172953698 -3 -3 -3
2163 721 1 -0.35 4.595051234516649 1.8054530526140156 48.69778709079605 -4 -3 3
1291 431 1 -0.35 4.3186582237849365 2.6444823572611873 94.2767312273826 0 1 -1
5327 1776 2 0.7 9.382088930404546 3.9118120410697395 88.20350457271063 -7 2 -2
4931 1644 2 0.7 9.042366371703052 6.771545998666372 57.48494431538724 -1 2 -1
4209 1403 1 -0.35 2.1215018519152364 9.065277428812236 64.48126188871147 3 0 -3
4930 1644 1 -0.35 9.402199270901622 5.782038841212967 56.9596156343918 -1 2 -1
2309 770 2 0.7 0.006662167428847498 6.864294895076937 60.445114495661564 -1 2 2
2902 968 1 -0.35 6.4034621933624605 9.567182721193246 92.95777793700373 2 5 1
5129 1710 2 0.7 1.3860519291059215 9.53607720775314 59.45324429150812 -2 1 -1
5332 1778 1 -0.35 9.558979131653752 8.595607532142918 87.95218797138281 -4 -2 3
4497 1499 1 -0.35 2.333419160096117 8.692268569847617 49.11528566879193 1 7 1
5846 1949 2 0.7 6.753908648495467 9.23477355607042 76.60078884161193 -3 2 2
4283 1428 2 0.7 5.125378399848298 0.01677320553820661 77.89024001324033 -3 -1 5
4284 1428 1 -0.35 6.16489589690077 0.3924692062810115 78.18542560013293 -3 -1 5
31 11 1 -0.35 0.2213317993499362 9.6876345684656 83.39427094267711 2 -2 4
96 32 1 -0.35 2.140833664437479 6.398430713638423 97.61050083201782 4 0 0
2579 860 2 0.7 8.753067072695682 6.382604918259539 101.29822463909359 -2 -1 4
2578 860 1 -0.35 7.788849988191136 6.669117914205505 101.89285243939815 -2 -1 4
1688 563 2 0.7 0.19767945810778415 1.9677727343508928 102.70419344275362 -1 1 0
2147 716 2 0.7 4.751046098046856 1.4473868211857714 99.38865653194877 2 5 4
2862 954 1 -0.35 0.46975149948708866 3.615385749520055 136.0750395440746 -1 -2 6
2564 855 2 0.7 0.06479286719922808 8.276572662013379 101.2257715945129 0 0 1
2148 716 1 -0.35 5.644857914170703 0.7382043976294873 99.4550641845949 2 5 4
2146 716 1 -0.35 3.80142970845442 2.1077938095452495 99.30657247827006 2 5 4
95 32 2 0.7 1.126963005350017 6.223562713906398 98.15118541825278 4 0 0
4225 1409 1 -0.35 7.257968552024581 1.4447572443542147 102.90360129375924 1 4 -3
4226 1409 2 0.7 7.828876968445521 1.6858907610782257 103.90852971758495 1 4 -3
2563 855 1 -0.35 0.7973253499395804 7.3700762853953625 101.29143905001705 0 0 1
94 32 1 -0.35 0.06956384527942722 6.007510415218844 98.63277094434707 4 0 0
1687 563 1 -0.35 0.6564431694397789 3.00663233331242 102.96829026450999 -1 1 0
794 265 2 0.7 8.8681099300176 2.0469504874802484 100.5794225085916 2 1 -2
1084 362 1 -0.35 6.662875720273319 1.1525579175849638 130.05670309692485 0 2 1
795 265 1 -0.35 8.086599242340455 2.2494754178104133 99.76668317005579 2 1 -2
2926 976 1 -0.35 4.295604402605003 4.95144959740985 106.44022313370067 -1 2 -4
2786 929 2 0.7 4.304671290848998 3.25010678892309 109.43471582581022 -4 0 -1
2785 929 1 -0.35 4.01968810706649 4.189088859348261 110.01189521378686 -4 0 -1
2787 929 1 -0.35 4.54510112792559 2.326605685066687 108.79775889546828 -4 0 -1
4917 1639 1 -0.35 6.448263046420383 4.161919132262162 112.63844196852376 -1 4 -2
1664 555 2 0.7 0.49110433508054757 7.459736763009847 109.86657655943206 0 -2 5
3123 1041 1 -0.35 9.023902429010679 9.131676339667136 97.58681652789616 1 -1 -2
3055 1019 1 -0.35 2.8431661686655754 1.606732522419986 111.67925791918863 -6 3 -2
2927 976 2 0.7 3.576444348183581 5.723563668310508 105.92140336991713 -1 2 -4
3056 1019 2 0.7 1.721825659258379 1.5140114484013918 111.95112383013965 -6 3 -2
2928 976 1 -0.35 2.926922033108843 6.532589018124864 105.36416049990437 -1 2 -4
1665 555 1 -0.35 1.47086256387046 7.091224568905804 110.34573892932083 0 -2 5
4915 1639 1 -0.35 6.867760007769592 4.776400884513637 110.43145777778155 -1 4 -2
4916 1639 2 0.7 6.687715509544378 4.549181491665401 111.56816279819365 -1 4 -2
4099 1367 1 -0.35 7.429536030914448 1.5985153109144037 110.91931712118773 8 0 4
4101 1367 1 -0.35 8.8730741360156 0.12086424602771183 111.9246754603783 8 0 4
4100 1367 2 0.7 8.134256203285219 0.84550899799061 111.42983279493674 8 0 4
3868 1290 1 -0.35 1.9040010117616626 0.5612172420601153 108.76601885534728 -4 -3 -1
1365 455 1 -0.35 1.0794681669689612 5.489821210652546 114.03032942926681 0 2 4
3057 1019 1 -0.35 0.5615284996906628 1.4146998207020645 112.14688837545133 -6 3 -2
358 120 1 -0.35 8.884199888380472 8.372356713716686 112.48530756731165 2 -6 1
4312 1438 1 -0.35 6.9741963993161615 7.075784609577334 108.07228112327678 0 4 -3
1999 667 1 -0.35 9.005845331022455 0.09536930874463367 107.81901393966308 1 -2 1
4314 1438 1 -0.35 4.752211410647044 6.761485388541241 108.63141918790828 0 4 -3
4313 1438 2 0.7 5.8766976802059565 6.842271327457974 108.42231077112721 0 4 -3
5808 1936 1 -0.35 8.565613940873373 2.33014627055409 115.87799096554768 -2 2 -4
1363 455 1 -0.35 2.8889392772227778 4.323665432902186 113.26393331058581 0 2 4
4945 1649 1 -0.35 0.9732031795827738 3.8414726950242004 121.20189039133172 1 2 2
3162 1054 1 -0.35 5.145622925752677 5.075794563561749 144.3827915877212 2 0 1
4947 1649 1 -0.35 1.7022206397641375 1.9017627854714856 120.08835629821901 1 2 2
5807 1936 2 0.7 7.841314581437211 1.962831277374316 115.10280469828973 -2 2 -4
5806 1936 1 -0.35 7.088026193806367 1.7539920244592122 114.24916341673732 -2 2 -4