created by fftool

6000 atoms
4000 bonds
2000 angles
2 atom types
1 bond types
1 angle types
0.000000 54.965023 xlo xhi
0.000000 54.965023 ylo yhi
0.000000 54.965023 zlo zhi

Atoms

      1       1    1  -0.325600  3.672663e+01  5.118811e+00  4.816235e+01  # O CO2
      2       1    2   0.651200  3.601695e+01  6.017573e+00  4.797749e+01  # C CO2
      3       1    1  -0.325600  3.530726e+01  6.916335e+00  4.779263e+01  # O CO2
      4       2    1  -0.325600  1.722492e+01  1.136026e+01  3.984393e+01  # O CO2
      5       2    2   0.651200  1.636973e+01  1.141962e+01  3.906244e+01  # C CO2
      6       2    1  -0.325600  1.551454e+01  1.147898e+01  3.828094e+01  # O CO2
      7       3    1  -0.325600  1.794458e+01  7.446570e+00  5.159911e+01  # O CO2
      8       3    2   0.651200  1.786718e+01  8.127007e+00  5.253539e+01  # C CO2
      9       3    1  -0.325600  1.778979e+01  8.807443e+00  5.347167e+01  # O CO2
     10       4    1  -0.325600  6.662438e+00  5.345859e+01  3.120809e+01  # O CO2
     11       4    2   0.651200  7.764523e+00  5.345959e+01  3.157004e+01  # C CO2
     12       4    1  -0.325600  8.866609e+00  5.346059e+01  3.193199e+01  # O CO2
     13       5    1  -0.325600  4.507224e+00  1.131820e+01  8.109741e+00  # O CO2
     14       5    2   0.651200  3.704621e+00  1.123876e+01  7.276004e+00  # C CO2
     15       5    1  -0.325600  2.902018e+00  1.115932e+01  6.442267e+00  # O CO2
     16       6    1  -0.325600  5.229977e+01  1.404101e+01  5.073142e+01  # O CO2
     17       6    2   0.651200  5.205255e+01  1.418141e+01  5.185604e+01  # C CO2
     18       6    1  -0.325600  5.180533e+01  1.432182e+01  5.298066e+01  # O CO2
     19       7    1  -0.325600  6.613407e+00  2.169690e+01  8.281017e+00  # O CO2
     20       7    2   0.651200  6.366738e+00  2.061625e+01  8.623016e+00  # C CO2
     21       7    1  -0.325600  6.120070e+00  1.953561e+01  8.965016e+00  # O CO2
     22       8    1  -0.325600  3.221141e+00  5.224433e+01  1.414643e+01  # O CO2
     23       8    2   0.651200  4.352484e+00  5.205041e+01  1.431392e+01  # C CO2
     24       8    1  -0.325600  5.483828e+00  5.185649e+01  1.448142e+01  # O CO2
     25       9    1  -0.325600  2.371373e+01  8.104296e+00  4.822954e+01  # O CO2
     26       9    2   0.651200  2.445769e+01  7.296080e+00  4.860223e+01  # C CO2
     27       9    1  -0.325600  2.520166e+01  6.487865e+00  4.897493e+01  # O CO2
     28      10    1  -0.325600  4.824562e+01  2.188763e+01  4.626775e+01  # O CO2
     29      10    2   0.651200  4.921178e+01  2.216349e+01  4.568806e+01  # C CO2
     30      10    1  -0.325600  5.017794e+01  2.243935e+01  4.510837e+01  # O CO2
     31      11    1  -0.325600  3.575198e+01  4.292469e+01  2.651583e+01  # O CO2
     32      11    2   0.651200  3.529658e+01  4.186821e+01  2.666431e+01  # C CO2
     33      11    1  -0.325600  3.484118e+01  4.081172e+01  2.681280e+01  # O CO2
     34      12    1  -0.325600  5.065058e+01  2.215039e+01  3.992199e+00  # O CO2
     35      12    2   0.651200  5.169065e+01  2.166454e+01  3.825412e+00  # C CO2
     36      12    1  -0.325600  5.273071e+01  2.117870e+01  3.658625e+00  # O CO2
     37      13    1  -0.325600  1.395882e+01  2.283498e+01  5.145833e+01  # O CO2
     38      13    2   0.651200  1.484991e+01  2.209404e+01  5.150902e+01  # C CO2
     39      13    1  -0.325600  1.574100e+01  2.135311e+01  5.155971e+01  # O CO2
     40      14    1  -0.325600  2.035886e+01  5.171615e+01  3.712521e+01  # O CO2
     41      14    2   0.651200  2.038909e+01  5.055698e+01  3.709363e+01  # C CO2
     42      14    1  -0.325600  2.041932e+01  4.939780e+01  3.706206e+01  # O CO2
     43      15    1  -0.325600  7.452251e+00  4.444032e+01  4.024884e+01  # O CO2
     44      15    2   0.651200  8.508819e+00  4.491588e+01  4.030456e+01  # C CO2
     45      15    1  -0.325600  9.565387e+00  4.539144e+01  4.036028e+01  # O CO2
     46      16    1  -0.325600  4.251459e+01  4.198507e+01  2.650100e+01  # O CO2
     47      16    2   0.651200  4.245860e+01  4.093830e+01  2.699771e+01  # C CO2
     48      16    1  -0.325600  4.240261e+01  3.989152e+01  2.749442e+01  # O CO2
     49      17    1  -0.325600  4.985333e+01  1.397024e+01  3.455403e+01  # O CO2
     50      17    2   0.651200  4.964396e+01  1.369151e+01  3.344765e+01  # C CO2
     51      17    1  -0.325600  4.943459e+01  1.341278e+01  3.234127e+01  # O CO2
     52      18    1  -0.325600  2.145421e+01  4.716090e+00  1.161546e+01  # O CO2
     53      18    2   0.651200  2.078794e+01  4.960791e+00  1.069795e+01  # C CO2
     54      18    1  -0.325600  2.012168e+01  5.205493e+00  9.780447e+00  # O CO2
     55      19    1  -0.325600  4.502719e+01  3.723535e+01  2.202289e+01  # O CO2
     56      19    2   0.651200  4.398774e+01  3.774029e+01  2.212391e+01  # C CO2
     57      19    1  -0.325600  4.294830e+01  3.824522e+01  2.222493e+01  # O CO2
     58      20    1  -0.325600  3.605399e+01  2.619310e+00  2.029153e+01  # O CO2
     59      20    2   0.651200  3.718228e+01  2.361286e+00  2.036901e+01  # C CO2
     60      20    1  -0.325600  3.831056e+01  2.103262e+00  2.044649e+01  # O CO2
     61      21    1  -0.325600  3.303944e+01  3.466013e+01  1.872947e+01  # O CO2
     62      21    2   0.651200  3.191648e+01  3.438928e+01  1.883530e+01  # C CO2
     63      21    1  -0.325600  3.079352e+01  3.411843e+01  1.894113e+01  # O CO2
     64      22    1  -0.325600  3.206072e+01  4.701726e+01  3.006077e+01  # O CO2
     65      22    2   0.651200  3.108933e+01  4.668017e+01  2.952379e+01  # C CO2
     66      22    1  -0.325600  3.011793e+01  4.634307e+01  2.898680e+01  # O CO2
     67      23    1  -0.325600  3.985273e+01  3.679119e+01  3.744311e+01  # O CO2
     68      23    2   0.651200  4.018578e+01  3.770072e+01  3.680481e+01  # C CO2
     69      23    1  -0.325600  4.051884e+01  3.861025e+01  3.616651e+01  # O CO2
     70      24    1  -0.325600  4.613040e+01  3.793650e+01  3.084570e+01  # O CO2
     71      24    2   0.651200  4.555192e+01  3.693206e+01  3.089115e+01  # C CO2
     72      24    1  -0.325600  4.497344e+01  3.592762e+01  3.093660e+01  # O CO2
     73      25    1  -0.325600  2.064552e+01  5.302923e+01  3.976161e+01  # O CO2
     74      25    2   0.651200  2.034466e+01  5.217183e+01  4.048267e+01  # C CO2
     75      25    1  -0.325600  2.004379e+01  5.131442e+01  4.120374e+01  # O CO2
     76      26    1  -0.325600  3.762766e+01  4.765787e+01  1.996172e+01  # O CO2
     77      26    2   0.651200  3.696338e+01  4.684064e+01  2.044800e+01  # C CO2
     78      26    1  -0.325600  3.629911e+01  4.602341e+01  2.093429e+01  # O CO2
     79      27    1  -0.325600  3.308430e+01  2.105942e+01  1.362153e+01  # O CO2
     80      27    2   0.651200  3.359622e+01  2.090983e+01  1.259140e+01  # C CO2
     81      27    1  -0.325600  3.410815e+01  2.076024e+01  1.156128e+01  # O CO2
     82      28    1  -0.325600  8.951325e+00  3.853981e+01  3.321466e+01  # O CO2
     83      28    2   0.651200  9.423216e+00  3.958840e+01  3.336752e+01  # C CO2
     84      28    1  -0.325600  9.895107e+00  4.063700e+01  3.352039e+01  # O CO2
     85      29    1  -0.325600  1.011960e+01  3.579234e+01  3.671653e+01  # O CO2
     86      29    2   0.651200  9.275077e+00  3.657840e+01  3.659620e+01  # C CO2
     87      29    1  -0.325600  8.430549e+00  3.736446e+01  3.647586e+01  # O CO2
     88      30    1  -0.325600  1.416398e+01  3.737998e+01  3.730487e+01  # O CO2
     89      30    2   0.651200  1.480885e+01  3.759869e+01  3.636577e+01  # C CO2
     90      30    1  -0.325600  1.545372e+01  3.781740e+01  3.542667e+01  # O CO2
     91      31    1  -0.325600  5.168230e+01  3.635534e+01  4.749725e+01  # O CO2
     92      31    2   0.651200  5.102123e+01  3.681550e+01  4.666248e+01  # C CO2
     93      31    1  -0.325600  5.036015e+01  3.727566e+01  4.582771e+01  # O CO2
     94      32    1  -0.325600  5.214643e+01  2.913312e+01  2.481203e+01  # O CO2
     95      32    2   0.651200  5.127637e+01  2.837328e+01  2.491804e+01  # C CO2
     96      32    1  -0.325600  5.040631e+01  2.761344e+01  2.502405e+01  # O CO2
     97      33    1  -0.325600  4.435673e+01  5.695196e+00  2.216637e+01  # O CO2
     98      33    2   0.651200  4.509674e+01  6.437136e+00  2.266386e+01  # C CO2
     99      33    1  -0.325600  4.583676e+01  7.179077e+00  2.316136e+01  # O CO2
    100      34    1  -0.325600  1.647269e+01  4.213451e+01  9.194072e+00  # O CO2
    101      34    2   0.651200  1.622368e+01  4.108057e+01  9.609777e+00  # C CO2
    102      34    1  -0.325600  1.597467e+01  4.002664e+01  1.002548e+01  # O CO2
    103      35    1  -0.325600  2.819132e+01  9.784874e+00  2.512166e+01  # O CO2
    104      35    2   0.651200  2.832547e+01  9.194600e+00  2.413212e+01  # C CO2
    105      35    1  -0.325600  2.845962e+01  8.604325e+00  2.314259e+01  # O CO2
    106      36    1  -0.325600  2.911301e+01  1.445167e+01  2.340976e+01  # O CO2
    107      36    2   0.651200  2.875379e+01  1.341535e+01  2.378739e+01  # C CO2
    108      36    1  -0.325600  2.839457e+01  1.237904e+01  2.416502e+01  # O CO2
    109      37    1  -0.325600  5.403124e+00  5.204056e+01  2.382869e+01  # O CO2
    110      37    2   0.651200  4.647833e+00  5.243553e+01  2.304183e+01  # C CO2
    111      37    1  -0.325600  3.892542e+00  5.283051e+01  2.225499e+01  # O CO2
    112      38    1  -0.325600  5.069649e+01  6.411640e+00  4.550594e+01  # O CO2
    113      38    2   0.651200  4.965666e+01  6.829192e+00  4.580592e+01  # C CO2
    114      38    1  -0.325600  4.861682e+01  7.246743e+00  4.610591e+01  # O CO2
    115      39    1  -0.325600  4.938538e+01  3.159423e+01  9.105141e+00  # O CO2
    116      39    2   0.651200  4.843849e+01  3.128663e+01  9.700453e+00  # C CO2
    117      39    1  -0.325600  4.749161e+01  3.097904e+01  1.029576e+01  # O CO2
    118      40    1  -0.325600  2.637383e+01  7.740331e+00  1.455898e+01  # O CO2
    119      40    2   0.651200  2.559435e+01  6.891454e+00  1.442705e+01  # C CO2
    120      40    1  -0.325600  2.481486e+01  6.042576e+00  1.429512e+01  # O CO2
    121      41    1  -0.325600  1.568430e+01  3.114703e+01  5.012169e+01  # O CO2
    122      41    2   0.651200  1.675121e+01  3.076480e+01  4.987430e+01  # C CO2
    123      41    1  -0.325600  1.781812e+01  3.038258e+01  4.962691e+01  # O CO2
    124      42    1  -0.325600  3.967418e+01  1.428807e+01  5.671074e+00  # O CO2
    125      42    2   0.651200  3.901108e+01  1.446715e+01  4.736284e+00  # C CO2
    126      42    1  -0.325600  3.834798e+01  1.464622e+01  3.801494e+00  # O CO2
    127      43    1  -0.325600  2.821579e+01  6.105776e+00  4.403348e+01  # O CO2
    128      43    2   0.651200  2.801748e+01  4.962962e+00  4.404930e+01  # C CO2
    129      43    1  -0.325600  2.781917e+01  3.820149e+00  4.406513e+01  # O CO2
    130      44    1  -0.325600  2.605375e+01  4.837089e+01  9.227650e+00  # O CO2
    131      44    2   0.651200  2.645066e+01  4.935674e+01  8.762716e+00  # C CO2
    132      44    1  -0.325600  2.684756e+01  5.034259e+01  8.297782e+00  # O CO2
    133      45    1  -0.325600  1.820681e+01  1.271462e+01  5.118903e+01  # O CO2
    134      45    2   0.651200  1.754239e+01  1.176841e+01  5.109504e+01  # C CO2
    135      45    1  -0.325600  1.687797e+01  1.082220e+01  5.100106e+01  # O CO2
    136      46    1  -0.325600  2.883657e+01  2.166836e+01  5.309602e+01  # O CO2
    137      46    2   0.651200  2.829001e+01  2.269150e+01  5.308869e+01  # C CO2
    138      46    1  -0.325600  2.774345e+01  2.371464e+01  5.308136e+01  # O CO2
    139      47    1  -0.325600  1.557443e+01  3.037580e+01  1.252018e+01  # O CO2
    140      47    2   0.651200  1.453836e+01  3.004147e+01  1.292065e+01  # C CO2
    141      47    1  -0.325600  1.350228e+01  2.970714e+01  1.332111e+01  # O CO2
    142      48    1  -0.325600  3.954921e+01  2.271502e+01  1.381169e+01  # O CO2
    143      48    2   0.651200  3.974792e+01  2.241374e+01  1.491412e+01  # C CO2
    144      48    1  -0.325600  3.994662e+01  2.211246e+01  1.601654e+01  # O CO2
    145      49    1  -0.325600  3.116242e+01  1.983597e+01  5.242700e+01  # O CO2
    146      49    2   0.651200  3.171787e+01  1.931935e+01  5.154940e+01  # C CO2
    147      49    1  -0.325600  3.227332e+01  1.880273e+01  5.067180e+01  # O CO2
    148      50    1  -0.325600  7.967218e+00  3.035663e+00  1.916167e+01  # O CO2
    149      50    2   0.651200  7.169178e+00  2.257207e+00  1.884114e+01  # C CO2
    150      50    1  -0.325600  6.371139e+00  1.478752e+00  1.852061e+01  # O CO2
    151      51    1  -0.325600  5.026550e+00  4.314097e+01  2.513824e+01  # O CO2
    152      51    2   0.651200  5.324478e+00  4.241007e+01  2.598830e+01  # C CO2
    153      51    1  -0.325600  5.622406e+00  4.167916e+01  2.683837e+01  # O CO2
    154      52    1  -0.325600  7.274595e+00  1.187695e+01  1.784129e+01  # O CO2
    155      52    2   0.651200  6.538271e+00  1.274202e+01  1.760661e+01  # C CO2
    156      52    1  -0.325600  5.801948e+00  1.360709e+01  1.737193e+01  # O CO2
    157      53    1  -0.325600  3.006514e+01  5.090738e+01  3.790001e+01  # O CO2
    158      53    2   0.651200  2.929752e+01  5.177130e+01  3.800002e+01  # C CO2
    159      53    1  -0.325600  2.852991e+01  5.263523e+01  3.810003e+01  # O CO2
    160      54    1  -0.325600  3.845869e+01  2.846941e+01  3.906399e+01  # O CO2
    161      54    2   0.651200  3.952652e+01  2.855040e+01  3.861814e+01  # C CO2
    162      54    1  -0.325600  4.059434e+01  2.863140e+01  3.817228e+01  # O CO2
    163      55    1  -0.325600  4.117371e+01  2.554706e+01  5.164644e+01  # O CO2
    164      55    2   0.651200  4.052073e+01  2.524708e+01  5.255706e+01  # C CO2
    165      55    1  -0.325600  3.986775e+01  2.494710e+01  5.346769e+01  # O CO2
    166      56    1  -0.325600  3.861971e+00  7.630000e+00  2.780809e+00  # O CO2
    167      56    2   0.651200  4.288846e+00  6.553871e+00  2.853766e+00  # C CO2
    168      56    1  -0.325600  4.715722e+00  5.477741e+00  2.926724e+00  # O CO2
    169      57    1  -0.325600  4.840064e+01  5.344469e+01  3.500189e+01  # O CO2
    170      57    2   0.651200  4.741539e+01  5.283796e+01  3.508413e+01  # C CO2
    171      57    1  -0.325600  4.643014e+01  5.223123e+01  3.516637e+01  # O CO2
    172      58    1  -0.325600  1.989618e+01  3.292884e+00  4.239176e+01  # O CO2
    173      58    2   0.651200  1.980050e+01  3.860243e+00  4.339901e+01  # C CO2
    174      58    1  -0.325600  1.970482e+01  4.427602e+00  4.440626e+01  # O CO2
    175      59    1  -0.325600  2.620943e+01  3.274735e+01  5.047100e+01  # O CO2
    176      59    2   0.651200  2.574932e+01  3.355758e+01  4.978005e+01  # C CO2
    177      59    1  -0.325600  2.528920e+01  3.436781e+01  4.908909e+01  # O CO2
    178      60    1  -0.325600  4.452027e+01  4.289484e+00  2.517123e+01  # O CO2
    179      60    2   0.651200  4.480585e+01  3.738594e+00  2.419115e+01  # C CO2
    180      60    1  -0.325600  4.509143e+01  3.187705e+00  2.321107e+01  # O CO2
    181      61    1  -0.325600  2.885907e+01  4.842365e+01  3.799608e+01  # O CO2
    182      61    2   0.651200  2.884864e+01  4.775309e+01  3.894257e+01  # C CO2
    183      61    1  -0.325600  2.883821e+01  4.708253e+01  3.988906e+01  # O CO2
    184      62    1  -0.325600  4.023379e+01  2.662369e+01  4.045374e+01  # O CO2
    185      62    2   0.651200  3.915249e+01  2.620404e+01  4.047071e+01  # C CO2
    186      62    1  -0.325600  3.807120e+01  2.578438e+01  4.048768e+01  # O CO2
    187      63    1  -0.325600  2.584449e+01  4.104711e+01  4.321793e+01  # O CO2
    188      63    2   0.651200  2.618294e+01  3.993776e+01  4.323816e+01  # C CO2
    189      63    1  -0.325600  2.652138e+01  3.882842e+01  4.325839e+01  # O CO2
    190      64    1  -0.325600  4.443711e+01  5.048612e+01  4.072225e+01  # O CO2
    191      64    2   0.651200  4.507460e+01  4.966747e+01  4.124091e+01  # C CO2
    192      64    1  -0.325600  4.571210e+01  4.884882e+01  4.175957e+01  # O CO2
    193      65    1  -0.325600  4.317544e+01  4.184080e+01  1.451809e+01  # O CO2
    194      65    2   0.651200  4.215653e+01  4.131083e+01  1.435515e+01  # C CO2
    195      65    1  -0.325600  4.113761e+01  4.078087e+01  1.419222e+01  # O CO2
    196      66    1  -0.325600  7.631532e+00  2.058546e+00  7.759281e+00  # O CO2
    197      66    2   0.651200  8.306662e+00  2.998502e+00  7.838534e+00  # C CO2
    198      66    1  -0.325600  8.981792e+00  3.938459e+00  7.917786e+00  # O CO2
    199      67    1  -0.325600  1.245150e+01  1.337109e+01  4.351945e+01  # O CO2
    200      67    2   0.651200  1.356058e+01  1.303854e+01  4.358999e+01  # C CO2
    201      67    1  -0.325600  1.466965e+01  1.270599e+01  4.366052e+01  # O CO2
    202      68    1  -0.325600  1.748884e+01  1.814476e+01  5.212395e+01  # O CO2
    203      68    2   0.651200  1.649833e+01  1.840436e+01  5.157888e+01  # C CO2
    204      68    1  -0.325600  1.550783e+01  1.866397e+01  5.103380e+01  # O CO2
    205      69    1  -0.325600  1.468830e+01  4.343731e+01  3.065168e+01  # O CO2
    206      69    2   0.651200  1.397953e+01  4.430628e+01  3.035482e+01  # C CO2
    207      69    1  -0.325600  1.327075e+01  4.517525e+01  3.005795e+01  # O CO2
    208      70    1  -0.325600  4.562882e+01  4.152869e+01  1.095038e+01  # O CO2
    209      70    2   0.651200  4.499319e+01  4.056114e+01  1.087683e+01  # C CO2
    210      70    1  -0.325600  4.435757e+01  3.959358e+01  1.080327e+01  # O CO2
    211      71    1  -0.325600  2.611686e+01  5.226137e+01  5.189275e+01  # O CO2
    212      71    2   0.651200  2.524779e+01  5.249810e+01  5.262370e+01  # C CO2
    213      71    1  -0.325600  2.437872e+01  5.273483e+01  5.335464e+01  # O CO2
    214      72    1  -0.325600  8.592709e+00  2.641485e+01  4.958810e+01  # O CO2
    215      72    2   0.651200  7.718274e+00  2.588476e+01  4.904041e+01  # C CO2
    216      72    1  -0.325600  6.843839e+00  2.535467e+01  4.849271e+01  # O CO2
    217      73    1  -0.325600  7.045378e+00  3.429668e+00  4.497637e+01  # O CO2
    218      73    2   0.651200  7.989892e+00  4.083398e+00  4.513802e+01  # C CO2
    219      73    1  -0.325600  8.934406e+00  4.737128e+00  4.529967e+01  # O CO2
    220      74    1  -0.325600  8.758093e+00  4.372625e+01  2.597578e+01  # O CO2
    221      74    2   0.651200  8.749574e+00  4.258089e+01  2.615929e+01  # C CO2
    222      74    1  -0.325600  8.741055e+00  4.143553e+01  2.634280e+01  # O CO2
    223      75    1  -0.325600  4.930040e+01  5.109726e+01  4.817359e+01  # O CO2
    224      75    2   0.651200  4.869796e+01  5.013852e+01  4.792163e+01  # C CO2
    225      75    1  -0.325600  4.809552e+01  4.917978e+01  4.766968e+01  # O CO2
    226      76    1  -0.325600  5.116719e+01  2.988624e+01  5.204247e+01  # O CO2
    227      76    2   0.651200  5.232169e+01  2.995940e+01  5.212842e+01  # C CO2
    228      76    1  -0.325600  5.347619e+01  3.003256e+01  5.221437e+01  # O CO2
    229      77    1  -0.325600  3.858100e+01  2.409683e+01  1.133963e+01  # O CO2
    230      77    2   0.651200  3.901264e+01  2.507451e+01  1.088860e+01  # C CO2
    231      77    1  -0.325600  3.944428e+01  2.605219e+01  1.043756e+01  # O CO2
    232      78    1  -0.325600  1.622778e+01  4.705944e+01  4.444782e+01  # O CO2
    233      78    2   0.651200  1.528241e+01  4.770432e+01  4.463755e+01  # C CO2
    234      78    1  -0.325600  1.433703e+01  4.834920e+01  4.482727e+01  # O CO2
    235      79    1  -0.325600  4.057487e+01  4.349735e+01  4.904413e+01  # O CO2
    236      79    2   0.651200  4.061186e+01  4.238111e+01  4.935756e+01  # C CO2
    237      79    1  -0.325600  4.064885e+01  4.126487e+01  4.967099e+01  # O CO2
    238      80    1  -0.325600  1.380417e+01  4.608028e+01  3.399834e+01  # O CO2
    239      80    2   0.651200  1.459623e+01  4.612420e+01  3.315199e+01  # C CO2
    240      80    1  -0.325600  1.538829e+01  4.616812e+01  3.230564e+01  # O CO2
    241      81    1  -0.325600  4.732614e+01  2.802597e+01  8.260428e+00  # O CO2
    242      81    2   0.651200  4.766196e+01  2.783660e+01  9.354487e+00  # C CO2
    243      81    1  -0.325600  4.799777e+01  2.764723e+01  1.044855e+01  # O CO2
    244      82    1  -0.325600  4.922054e+00  4.128319e+01  3.105494e+01  # O CO2
    245      82    2   0.651200  4.106074e+00  4.206833e+01  3.130661e+01  # C CO2
    246      82    1  -0.325600  3.290095e+00  4.285346e+01  3.155828e+01  # O CO2
    247      83    1  -0.325600  1.402169e+01  4.854932e+01  5.023568e+01  # O CO2
    248      83    2   0.651200  1.432519e+01  4.763869e+01  4.958434e+01  # C CO2
    249      83    1  -0.325600  1.462869e+01  4.672806e+01  4.893301e+01  # O CO2
    250      84    1  -0.325600  3.126565e+01  3.423380e+00  3.359061e+00  # O CO2
    251      84    2   0.651200  3.028589e+01  4.018918e+00  3.183003e+00  # C CO2
    252      84    1  -0.325600  2.930612e+01  4.614455e+00  3.006944e+00  # O CO2
    253      85    1  -0.325600  4.914922e+01  1.854922e+01  4.598639e+01  # O CO2
    254      85    2   0.651200  4.980250e+01  1.838859e+01  4.504139e+01  # C CO2
    255      85    1  -0.325600  5.045578e+01  1.822795e+01  4.409639e+01  # O CO2
    256      86    1  -0.325600  4.925402e+01  1.581250e+00  6.483769e+00  # O CO2
    257      86    2   0.651200  4.995541e+01  2.502603e+00  6.552747e+00  # C CO2
    258      86    1  -0.325600  5.065680e+01  3.423955e+00  6.621725e+00  # O CO2
    259      87    1  -0.325600  1.762725e+01  2.448362e+01  4.053621e+01  # O CO2
    260      87    2   0.651200  1.753363e+01  2.535819e+01  4.129249e+01  # C CO2
    261      87    1  -0.325600  1.744001e+01  2.623276e+01  4.204878e+01  # O CO2
    262      88    1  -0.325600  3.134924e+01  1.868214e+01  4.435724e+01  # O CO2
    263      88    2   0.651200  3.060372e+01  1.837064e+01  4.352491e+01  # C CO2
    264      88    1  -0.325600  2.985820e+01  1.805914e+01  4.269259e+01  # O CO2
    265      89    1  -0.325600  3.595162e+01  2.621371e+00  4.901478e+01  # O CO2
    266      89    2   0.651200  3.533336e+01  3.126031e+00  4.985660e+01  # C CO2
    267      89    1  -0.325600  3.471509e+01  3.630691e+00  5.069843e+01  # O CO2
    268      90    1  -0.325600  3.737443e+00  3.212364e+01  5.025148e+00  # O CO2
    269      90    2   0.651200  3.548460e+00  3.326814e+01  5.023059e+00  # C CO2
    270      90    1  -0.325600  3.359476e+00  3.441264e+01  5.020970e+00  # O CO2
    271      91    1  -0.325600  5.031546e+01  5.323940e+01  1.649876e+01  # O CO2
    272      91    2   0.651200  5.022154e+01  5.228655e+01  1.715365e+01  # C CO2
    273      91    1  -0.325600  5.012761e+01  5.133371e+01  1.780853e+01  # O CO2
    274      92    1  -0.325600  3.982917e+01  3.717556e+01  2.980878e+01  # O CO2
    275      92    2   0.651200  3.870672e+01  3.731276e+01  2.955015e+01  # C CO2
    276      92    1  -0.325600  3.758427e+01  3.744996e+01  2.929152e+01  # O CO2
    277      93    1  -0.325600  1.110262e+01  2.046676e+01  4.955013e+01  # O CO2
    278      93    2   0.651200  1.109059e+01  2.115819e+01  4.861880e+01  # C CO2
    279      93    1  -0.325600  1.107855e+01  2.184962e+01  4.768746e+01  # O CO2
    280      94    1  -0.325600  1.913430e+01  3.481137e+01  2.647208e+01  # O CO2
    281      94    2   0.651200  1.864897e+01  3.392988e+01  2.704917e+01  # C CO2
    282      94    1  -0.325600  1.816364e+01  3.304840e+01  2.762627e+01  # O CO2
    283      95    1  -0.325600  4.838982e+01  8.001661e+00  1.115874e+01  # O CO2
    284      95    2   0.651200  4.754097e+01  7.927791e+00  1.037159e+01  # C CO2
    285      95    1  -0.325600  4.669213e+01  7.853921e+00  9.584434e+00  # O CO2
    286      96    1  -0.325600  2.713196e+01  2.438994e+01  3.722189e+01  # O CO2
    287      96    2   0.651200  2.761605e+01  2.365765e+01  3.798019e+01  # C CO2
    288      96    1  -0.325600  2.810013e+01  2.292537e+01  3.873849e+01  # O CO2
    289      97    1  -0.325600  7.846153e+00  8.948083e+00  3.815786e+00  # O CO2
    290      97    2   0.651200  8.927705e+00  9.361211e+00  3.743869e+00  # C CO2
    291      97    1  -0.325600  1.000926e+01  9.774339e+00  3.671953e+00  # O CO2
    292      98    1  -0.325600  5.071552e+01  2.475583e+01  2.272075e+01  # O CO2
    293      98    2   0.651200  5.168307e+01  2.528739e+01  2.307697e+01  # C CO2
    294      98    1  -0.325600  5.265061e+01  2.581896e+01  2.343320e+01  # O CO2
    295      99    1  -0.325600  1.859260e+01  2.214850e+01  4.675897e+01  # O CO2
    296      99    2   0.651200  1.878903e+01  2.329173e+01  4.676434e+01  # C CO2
    297      99    1  -0.325600  1.898545e+01  2.443497e+01  4.676971e+01  # O CO2
    298     100    1  -0.325600  5.074558e+01  3.617373e+01  8.861946e+00  # O CO2
    299     100    2   0.651200  5.115255e+01  3.528292e+01  8.240307e+00  # C CO2
    300     100    1  -0.325600  5.155952e+01  3.439211e+01  7.618668e+00  # O CO2
    301     101    1  -0.325600  3.479167e+00  3.493365e+01  5.112261e+01  # O CO2
    302     101    2   0.651200  2.496928e+00  3.553188e+01  5.097119e+01  # C CO2
    303     101    1  -0.325600  1.514690e+00  3.613011e+01  5.081977e+01  # O CO2
    304     102    1  -0.325600  3.972994e+01  2.032686e+01  5.061684e+01  # O CO2
    305     102    2   0.651200  3.893167e+01  1.985097e+01  5.131102e+01  # C CO2
    306     102    1  -0.325600  3.813340e+01  1.937508e+01  5.200520e+01  # O CO2
    307     103    1  -0.325600  2.073854e+01  8.485656e+00  1.776300e+01  # O CO2
    308     103    2   0.651200  2.118137e+01  7.414169e+00  1.772541e+01  # C CO2
    309     103    1  -0.325600  2.162420e+01  6.342682e+00  1.768782e+01  # O CO2
    310     104    1  -0.325600  5.251405e+01  1.782582e+01  5.328855e+01  # O CO2
    311     104    2   0.651200  5.162784e+01  1.818504e+01  5.263189e+01  # C CO2
    312     104    1  -0.325600  5.074164e+01  1.854426e+01  5.197523e+01  # O CO2
    313     105    1  -0.325600  3.699491e+01  4.422111e+01  4.260667e+00  # O CO2
    314     105    2   0.651200  3.710672e+01  4.479856e+01  3.260838e+00  # C CO2
    315     105    1  -0.325600  3.721853e+01  4.537600e+01  2.261009e+00  # O CO2
    316     106    1  -0.325600  2.415524e+01  2.515425e+01  1.205246e+01  # O CO2
    317     106    2   0.651200  2.304821e+01  2.495560e+01  1.233641e+01  # C CO2
    318     106    1  -0.325600  2.194118e+01  2.475694e+01  1.262035e+01  # O CO2
    319     107    1  -0.325600  3.056513e+01  3.155086e+01  3.832349e+01  # O CO2
    320     107    2   0.651200  2.964052e+01  3.162908e+01  3.901961e+01  # C CO2
    321     107    1  -0.325600  2.871591e+01  3.170729e+01  3.971572e+01  # O CO2
    322     108    1  -0.325600  2.118520e+01  5.123511e+01  3.267107e+01  # O CO2
    323     108    2   0.651200  2.147290e+01  5.235014e+01  3.281077e+01  # C CO2
    324     108    1  -0.325600  2.176061e+01  5.346518e+01  3.295046e+01  # O CO2
    325     109    1  -0.325600  6.466039e+00  7.573076e+00  2.127289e+01  # O CO2
    326     109    2   0.651200  6.388390e+00  8.395272e+00  2.208748e+01  # C CO2
    327     109    1  -0.325600  6.310741e+00  9.217468e+00  2.290208e+01  # O CO2
    328     110    1  -0.325600  5.789122e+00  4.354912e+01  2.928382e+01  # O CO2
    329     110    2   0.651200  5.952541e+00  4.433689e+01  2.844816e+01  # C CO2
    330     110    1  -0.325600  6.115959e+00  4.512465e+01  2.761250e+01  # O CO2
    331     111    1  -0.325600  1.614751e+01  4.486532e+01  9.148492e+00  # O CO2
    332     111    2   0.651200  1.690303e+01  4.522564e+01  8.345389e+00  # C CO2
    333     111    1  -0.325600  1.765854e+01  4.558596e+01  7.542286e+00  # O CO2
    334     112    1  -0.325600  4.822264e+01  7.470287e+00  1.421289e+01  # O CO2
    335     112    2   0.651200  4.762544e+01  8.230978e+00  1.485345e+01  # C CO2
    336     112    1  -0.325600  4.702825e+01  8.991669e+00  1.549400e+01  # O CO2
    337     113    1  -0.325600  2.743060e+01  4.269143e+01  5.212242e+01  # O CO2
    338     113    2   0.651200  2.703496e+01  4.252120e+01  5.104534e+01  # C CO2
    339     113    1  -0.325600  2.663932e+01  4.235098e+01  4.996827e+01  # O CO2
    340     114    1  -0.325600  2.501947e+01  1.064433e+01  2.286567e+01  # O CO2
    341     114    2   0.651200  2.399576e+01  1.091422e+01  2.333977e+01  # C CO2
    342     114    1  -0.325600  2.297205e+01  1.118410e+01  2.381388e+01  # O CO2
    343     115    1  -0.325600  2.053637e+01  2.554134e+01  9.134924e+00  # O CO2
    344     115    2   0.651200  1.959127e+01  2.617112e+01  9.371055e+00  # C CO2
    345     115    1  -0.325600  1.864617e+01  2.680091e+01  9.607185e+00  # O CO2
    346     116    1  -0.325600  9.389855e+00  4.145234e+01  9.908595e+00  # O CO2
    347     116    2   0.651200  8.846773e+00  4.077479e+01  9.139449e+00  # C CO2
    348     116    1  -0.325600  8.303691e+00  4.009724e+01  8.370303e+00  # O CO2
    349     117    1  -0.325600  1.566027e+01  2.449068e+01  3.252606e+01  # O CO2
    350     117    2   0.651200  1.514572e+01  2.548686e+01  3.282350e+01  # C CO2
    351     117    1  -0.325600  1.463117e+01  2.648304e+01  3.312094e+01  # O CO2
    352     118    1  -0.325600  2.008126e+01  3.340208e+01  9.537993e+00  # O CO2
    353     118    2   0.651200  1.926628e+01  3.328556e+01  1.035520e+01  # C CO2
    354     118    1  -0.325600  1.845131e+01  3.316903e+01  1.117242e+01  # O CO2
    355     119    1  -0.325600  1.249573e+01  2.596029e+01  1.991401e+01  # O CO2
    356     119    2   0.651200  1.172444e+01  2.593407e+01  2.078004e+01  # C CO2
    357     119    1  -0.325600  1.095314e+01  2.590785e+01  2.164607e+01  # O CO2
    358     120    1  -0.325600  2.935677e+01  4.957148e+01  3.448080e+01  # O CO2
    359     120    2   0.651200  2.967700e+01  4.848086e+01  3.424929e+01  # C CO2