variable        infile index CO2_cuboid.data
shell           mkdir MULLER_PLATHE
variable        POST index MULLER_PLATHE

variable        timestep         equal 0.5
variable        kb               equal 0.0019872067
variable        nz_layers        equal 60
variable        nx_layers        equal 3
variable        bin_size         equal 1/${nz_layers}
variable        bin_size         equal 1/60
variable        hot_bin          equal (${nz_layers}/2)+1
variable        hot_bin          equal (60/2)+1
variable        swap_freq        equal 4000
variable        kappa_run_eq     equal 5000000
variable        kappa_run_pr     equal 20000000
variable        thermo_NUM       equal 4000
variable        N_every          equal 10
variable        N_repeat         equal 1000
variable        N_freq           equal 10000

variable        t                equal step
variable        T                equal temp
variable        P                equal press
variable        Total_Energy     equal etotal
variable        V                equal vol
variable        Total_Density    equal density
variable        xl               equal lx
variable        zl               equal lz

units		    real
atom_style	    full
boundary        p p p
pair_style	    lj/cut/coul/long 12.0
pair_modify     mix arithmetic tail yes   # Geometric for EPM2
kspace_style    pppm 1e-6
bond_style      harmonic
angle_style     harmonic

#---------------------------- NEIGHBOUR_LIST/INITIALIZATION -----------------------------------------------------------------------#

read_data       ${infile}
read_data       CO2_cuboid.data
Reading data file ...
  orthogonal box = (0 0 0) to (29.094145 29.094145 193.96096)
  2 by 2 by 9 MPI processor grid
  reading atoms ...
  6000 atoms
  reading velocities ...
  6000 velocities
  scanning bonds ...
  1 = max bonds/atom
  scanning angles ...
  1 = max angles/atom
  reading bonds ...
  4000 bonds
  reading angles ...
  2000 angles
Finding 1-2 1-3 1-4 neighbors ...
  special bond factors lj:    0        0        0       
  special bond factors coul:  0        0        0       
     2 = max # of 1-2 neighbors
     1 = max # of 1-3 neighbors
     1 = max # of 1-4 neighbors
     2 = max # of special neighbors
  special bonds CPU = 0.003 seconds
  read_data CPU = 0.139 seconds

neighbor	    3.0 bin
neigh_modify    every 1 delay 0 check yes

#_______________________ EQUILIBRATION __________________________#

compute         ke all ke/atom
variable        temp atom c_ke/(1.5*${kb})
variable        temp atom c_ke/(1.5*0.0019872067)

fix             NVE_MP_eq all nve

compute         temp_layers all chunk/atom bin/1d z lower ${bin_size} units reduced
compute         temp_layers all chunk/atom bin/1d z lower 0.0166666666666667 units reduced
fix		        temp_profile_eq all ave/chunk ${N_every} ${N_repeat} ${N_freq} temp_layers v_temp file ${POST}/temp_profile_eq.MP
fix		        temp_profile_eq all ave/chunk 10 ${N_repeat} ${N_freq} temp_layers v_temp file ${POST}/temp_profile_eq.MP
fix		        temp_profile_eq all ave/chunk 10 1000 ${N_freq} temp_layers v_temp file ${POST}/temp_profile_eq.MP
fix		        temp_profile_eq all ave/chunk 10 1000 10000 temp_layers v_temp file ${POST}/temp_profile_eq.MP
fix		        temp_profile_eq all ave/chunk 10 1000 10000 temp_layers v_temp file MULLER_PLATHE/temp_profile_eq.MP

variable        hot_layer equal f_temp_profile_eq[${hot_bin}][3]
variable        hot_layer equal f_temp_profile_eq[31][3]
variable        cold_layer equal f_temp_profile_eq[1][3]

print           "Step T_hot T_cold" file ${POST}/Temperature_eq.out
print           "Step T_hot T_cold" file MULLER_PLATHE/Temperature_eq.out
Step T_hot T_cold
fix             PRINT_T all print ${N_freq} "$t $(v_hot_layer:%.4f) $(v_cold_layer:%.4f)"                 append ${POST}/Temperature_eq.out title ""
fix             PRINT_T all print 10000 "$t $(v_hot_layer:%.4f) $(v_cold_layer:%.4f)"                 append ${POST}/Temperature_eq.out title ""
fix             PRINT_T all print 10000 "$t $(v_hot_layer:%.4f) $(v_cold_layer:%.4f)"                 append MULLER_PLATHE/Temperature_eq.out title ""

fix             flux_eq all thermal/conductivity ${swap_freq} z ${nz_layers}
fix             flux_eq all thermal/conductivity 4000 z ${nz_layers}
fix             flux_eq all thermal/conductivity 4000 z 60

thermo_style    custom step dt temp press etotal vol density f_flux_eq
thermo_modify   colname f_flux_eq E_delta
thermo          ${thermo_NUM}
thermo          4000

variable        Total_Heat_Flux  equal f_flux_eq

print           "Step Temp Pressure Total_Energy Volume Density x_length z_length Total_Heat_Flux" file ${POST}/Muller_Plathe_eq.out
print           "Step Temp Pressure Total_Energy Volume Density x_length z_length Total_Heat_Flux" file MULLER_PLATHE/Muller_Plathe_eq.out
Step Temp Pressure Total_Energy Volume Density x_length z_length Total_Heat_Flux
fix             PRINT all print ${thermo_NUM} "$t $T $P $(v_Total_Energy) $V $(v_Total_Density) $(v_xl) $(v_zl) $(v_Total_Heat_Flux)"                 append ${POST}/Muller_Plathe_eq.out title ""
fix             PRINT all print 4000 "$t $T $P $(v_Total_Energy) $V $(v_Total_Density) $(v_xl) $(v_zl) $(v_Total_Heat_Flux)"                 append ${POST}/Muller_Plathe_eq.out title ""
fix             PRINT all print 4000 "$t $T $P $(v_Total_Energy) $V $(v_Total_Density) $(v_xl) $(v_zl) $(v_Total_Heat_Flux)"                 append MULLER_PLATHE/Muller_Plathe_eq.out title ""

timestep        ${timestep}
timestep        0.5
run             ${kappa_run_eq}
run             5000000
PPPM initialization ...
  using 12-bit tables for long-range coulomb (../kspace.cpp:342)
  G vector (1/distance) = 0.26824887
  grid = 32 32 128
  stencil order = 5
  estimated absolute RMS force accuracy = 0.00039915731
  estimated relative force accuracy = 1.2020504e-06
  using double precision KISS FFT
  3d grid and FFT values/proc = 13750 4096
Generated 1 of 1 mixed pair_coeff terms from arithmetic mixing rule
Neighbor list info ...
  update: every = 1 steps, delay = 0 steps, check = yes
  max neighbors/atom: 2000, page size: 100000
  master list distance cutoff = 15
  ghost atom cutoff = 15
  binsize = 7.5, bins = 4 4 26
  1 neighbor lists, perpetual/occasional/extra = 1 0 0
  (1) pair lj/cut/coul/long, perpetual
      attributes: half, newton on
      pair build: half/bin/newton
      stencil: half/bin/3d
      bin: standard
0 0.0000 0.0000
0 294.900006871507 299.655560282173 2789.1182637485499072 164181.993166049 0.89022536803114105108 29.094144684975599802 193.96096456650400341 0
Per MPI rank memory allocation (min/avg/max) = 8.168 | 8.212 | 8.235 Mbytes
   Step           Dt            Temp          Press          TotEng         Volume        Density        E_delta    
         0   0.5            294.90001      299.65556      2789.1183      164181.99      0.89022537     0            
4000 293.379296522833 92.9194286202402 2789.0200341287900301 164181.993166049 0.89022536803114105108 29.094144684975599802 193.96096456650400341 3.6606759806739899155
      4000   0.5            293.3793       92.919429      2789.02        164181.99      0.89022537     3.660676     
8000 298.657922293541 -34.8910021069604 2788.7481050264900659 164181.993166049 0.89022536803114105108 29.094144684975599802 193.96096456650400341 7.5011898454577004003
      8000   0.5            298.65792     -34.891002      2788.7481      164181.99      0.89022537     7.5011898    
10000 302.7732 286.9328
12000 293.387383679835 214.936444410703 2788.9621866618599597 164181.993166049 0.89022536803114105108 29.094144684975599802 193.96096456650400341 11.981757924308800156
     12000   0.5            293.38738      214.93644      2788.9622      164181.99      0.89022537     11.981758    
16000 297.752986473113 401.189387437017 2788.904005395169861 164181.993166049 0.89022536803114105108 29.094144684975599802 193.96096456650400341 15.259485494286399998
     16000   0.5            297.75299      401.18939      2788.904       164181.99      0.89022537     15.259485    
20000 318.6754 283.8682
20000 295.384246844528 438.827723406352 2789.1379109887898267 164181.993166049 0.89022536803114105108 29.094144684975599802 193.96096456650400341 17.8409511951503994
     20000   0.5            295.38425      438.82772      2789.1379      164181.99      0.89022537     17.840951    
24000 295.913414586338 -181.562719718191 2789.0509973550101677 164181.993166049 0.89022536803114105108 29.094144684975599802 193.96096456650400341 21.288768207977099678
     24000   0.5            295.91341     -181.56272      2789.051       164181.99      0.89022537     21.288768    
28000 296.211716595054 137.487799910985 2789.0469433591401867 164181.993166049 0.89022536803114105108 29.094144684975599802 193.96096456650400341 25.072632649933801474
     28000   0.5            296.21172      137.4878       2789.0469      164181.99      0.89022537     25.072633    
30000 325.4298 276.0600
32000 296.406858370202 240.819212096139 2789.0238644724399819 164181.993166049 0.89022536803114105108 29.094144684975599802 193.96096456650400341 28.005828581450401771
     32000   0.5            296.40686      240.81921      2789.0239      164181.99      0.89022537     28.005829    
36000 298.036249785205 153.609079065593 2789.2347841013202014 164181.993166049 0.89022536803114105108 29.094144684975599802 193.96096456650400341 32.22135272550149665
     36000   0.5            298.03625      153.60908      2789.2348      164181.99      0.89022537     32.221353    
40000 325.4878 290.6098
40000 297.477902438006 -123.144668183852 2789.2109084819298914 164181.993166049 0.89022536803114105108 29.094144684975599802 193.96096456650400341 34.876883788762498284
     40000   0.5            297.4779      -123.14467      2789.2109      164181.99      0.89022537     34.876884    
44000 295.616283795223 427.901077409579 2789.1346324902801825 164181.993166049 0.89022536803114105108 29.094144684975599802 193.96096456650400341 40.232955985329496684
     44000   0.5            295.61628      427.90108      2789.1346      164181.99      0.89022537     40.232956    
48000 296.264415857352 -125.543856156402 2788.7910109802601255 164181.993166049 0.89022536803114105108 29.094144684975599802 193.96096456650400341 43.780011065786197832
     48000   0.5            296.26442     -125.54386      2788.791       164181.99      0.89022537     43.780011    
50000 293.6589 286.1352
52000 297.590774188163 185.676491606223 2788.7930297787202107 164181.993166049 0.89022536803114105108 29.094144684975599802 193.96096456650400341 46.779978575742497071
     52000   0.5            297.59077      185.67649      2788.793       164181.99      0.89022537     46.779979    
56000 300.357477871865 -261.724693918972 2788.7283445888801907 164181.993166049 0.89022536803114105108 29.094144684975599802 193.96096456650400341 50.456370611108397384
     56000   0.5            300.35748     -261.72469      2788.7283      164181.99      0.89022537     50.456371    
60000 310.1915 307.3512
60000 293.198634693218 267.864416738144 2788.9829193096998097 164181.993166049 0.89022536803114105108 29.094144684975599802 193.96096456650400341 52.999236528217402054
     60000   0.5            293.19863      267.86442      2788.9829      164181.99      0.89022537     52.999237    
64000 295.208503074979 505.904767018285 2788.9665970465298415 164181.993166049 0.89022536803114105108 29.094144684975599802 193.96096456650400341 57.028048851829197474
     64000   0.5            295.2085       505.90477      2788.9666      164181.99      0.89022537     57.028049    
68000 292.162258168157 7.19859221620987 2789.0875166106498 164181.993166049 0.89022536803114105108 29.094144684975599802 193.96096456650400341 60.714121165789201484
     68000   0.5            292.16226      7.1985922      2789.0875      164181.99      0.89022537     60.714121    
70000 302.7340 283.5699
72000 294.657190092246 621.038810808282 2789.2295215677600027 164181.993166049 0.89022536803114105108 29.094144684975599802 193.96096456650400341 63.841121791659197982
     72000   0.5            294.65719      621.03881      2789.2295      164181.99      0.89022537     63.841122    
76000 296.22426998885 292.107661262202 2789.1372319953898113 164181.993166049 0.89022536803114105108 29.094144684975599802 193.96096456650400341 66.763160809654294781
     76000   0.5            296.22427      292.10766      2789.1372      164181.99      0.89022537     66.763161    
80000 318.9998 293.2622
80000 298.569305405779 366.233783224238 2788.9229872340802103 164181.993166049 0.89022536803114105108 29.094144684975599802 193.96096456650400341 70.53399365893669426
     80000   0.5            298.56931      366.23378      2788.923       164181.99      0.89022537     70.533994    
84000 299.131990538813 287.607752959119 2788.5826004425198335 164181.993166049 0.89022536803114105108 29.094144684975599802 193.96096456650400341 74.026991868272205011
     84000   0.5            299.13199      287.60775      2788.5826      164181.99      0.89022537     74.026992    
88000 298.03432510655 -287.734314306515 2788.5369033428401053 164181.993166049 0.89022536803114105108 29.094144684975599802 193.96096456650400341 77.131608159997696816
     88000   0.5            298.03433     -287.73431      2788.5369      164181.99      0.89022537     77.131608    
90000 308.7555 284.0572
92000 298.236552460283 237.326705716287 2788.6005810674400891 164181.993166049 0.89022536803114105108 29.094144684975599802 193.96096456650400341 80.515806298434796417
     92000   0.5            298.23655      237.32671      2788.6006      164181.99      0.89022537     80.515806    
96000 296.03273539105 483.511200938311 2788.6796329615599461 164181.993166049 0.89022536803114105108 29.094144684975599802 193.96096456650400341 85.602286614918796204
     96000   0.5            296.03274      483.5112       2788.6796      164181.99      0.89022537     85.602287    
100000 320.7046 286.4552
100000 298.331722199373 20.1562243517169 2788.7018603858700772 164181.993166049 0.89022536803114105108 29.094144684975599802 193.96096456650400341 89.808906097089803211
    100000   0.5            298.33172      20.156224      2788.7019      164181.99      0.89022537     89.808906    
104000 296.772899327881 307.387993011199 2789.0472894877798353 164181.993166049 0.89022536803114105108 29.094144684975599802 193.96096456650400341 93.904901280488005
    104000   0.5            296.7729       307.38799      2789.0473      164181.99      0.89022537     93.904901    
108000 295.545256943978 -324.265247254665 2789.0295065945301758 164181.993166049 0.89022536803114105108 29.094144684975599802 193.96096456650400341 97.875254715953104778
    108000   0.5            295.54526     -324.26525      2789.0295      164181.99      0.89022537     97.875255    
110000 325.3014 306.6267
112000 291.52647264932 85.1799059947851 2789.2259134129299127 164181.993166049 0.89022536803114105108 29.094144684975599802 193.96096456650400341 100.17013956782500372
    112000   0.5            291.52647      85.179906      2789.2259      164181.99      0.89022537     100.17014    
116000 294.852508966109 -244.963038169411 2789.0426556187499045 164181.993166049 0.89022536803114105108 29.094144684975599802 193.96096456650400341 104.14106802333400026
    116000   0.5            294.85251     -244.96304      2789.0427      164181.99      0.89022537     104.14107    
120000 324.7338 303.0334
120000 295.202863871576 132.0173320697 2789.1206880223899134 164181.993166049 0.89022536803114105108 29.094144684975599802 193.96096456650400341 107.63489085196999895
    120000   0.5            295.20286      132.01733      2789.1207      164181.99      0.89022537     107.63489    
124000 296.49228795693 491.061380536892 2789.1442267071997776 164181.993166049 0.89022536803114105108 29.094144684975599802 193.96096456650400341 110.72559972003300288
    124000   0.5            296.49229      491.06138      2789.1442      164181.99      0.89022537     110.7256     
128000 297.852772078178 -99.1337438356567 2788.9614414891698289 164181.993166049 0.89022536803114105108 29.094144684975599802 193.96096456650400341 113.28836433186900479
    128000   0.5            297.85277     -99.133744      2788.9614      164181.99      0.89022537     113.28836    
130000 318.5921 293.3397
132000 298.304067577928 91.5111984924757 2788.9674786622499596 164181.993166049 0.89022536803114105108 29.094144684975599802 193.96096456650400341 116.89264291027500065
    132000   0.5            298.30407      91.511198      2788.9675      164181.99      0.89022537     116.89264    
136000 298.728829427794 172.051574088515 2789.0360903373898509 164181.993166049 0.89022536803114105108 29.094144684975599802 193.96096456650400341 120.03177139303599574
    136000   0.5            298.72883      172.05157      2789.0361      164181.99      0.89022537     120.03177    
140000 315.5758 282.9231
140000 300.098773119709 965.084128052064 2788.856653217800158 164181.993166049 0.89022536803114105108 29.094144684975599802 193.96096456650400341 124.23432412688299564
    140000   0.5            300.09877      965.08413      2788.8567      164181.99      0.89022537     124.23432    
144000 298.165387165422 319.082489438069 2789.1216040647800583 164181.993166049 0.89022536803114105108 29.094144684975599802 193.96096456650400341 128.44037916085599704
    144000   0.5            298.16539      319.08249      2789.1216      164181.99      0.89022537     128.44038    
148000 295.083642053682 225.748818311109 2789.325458050960151 164181.993166049 0.89022536803114105108 29.094144684975599802 193.96096456650400341 132.23621094485500294
    148000   0.5            295.08364      225.74882      2789.3255      164181.99      0.89022537     132.23621    
150000 312.8800 290.2237
152000 292.998433705579 422.33862012629 2789.1136869141200805 164181.993166049 0.89022536803114105108 29.094144684975599802 193.96096456650400341 136.60179560331599191
    152000   0.5            292.99843      422.33862      2789.1137      164181.99      0.89022537     136.6018     
156000 295.902045477365 328.607262445955 2789.2866761990799205 164181.993166049 0.89022536803114105108 29.094144684975599802 193.96096456650400341 140.42814070312800823
    156000   0.5            295.90205      328.60726      2789.2867      164181.99      0.89022537     140.42814    
160000 304.9788 273.8267
160000 294.29946901131 344.905391656573 2789.2034705023302195 164181.993166049 0.89022536803114105108 29.094144684975599802 193.96096456650400341 143.96171879729701004
    160000   0.5            294.29947      344.90539      2789.2035      164181.99      0.89022537     143.96172    
164000 296.281925376264 -58.0554255539585 2789.4306397138498141 164181.993166049 0.89022536803114105108 29.094144684975599802 193.96096456650400341 147.41587553416400169
    164000   0.5            296.28193     -58.055426      2789.4306      164181.99      0.89022537     147.41588    
168000 297.948146298177 462.846117744582 2789.2421599579201938 164181.993166049 0.89022536803114105108 29.094144684975599802 193.96096456650400341 149.725395610926995
    168000   0.5            297.94815      462.84612      2789.2422      164181.99      0.89022537     149.7254     
170000 320.7912 275.9825
172000 297.452841493172 -833.614996725517 2789.2683094979402085 164181.993166049 0.89022536803114105108 29.094144684975599802 193.96096456650400341 153.29159796568501406
    172000   0.5            297.45284     -833.615        2789.2683      164181.99      0.89022537     153.2916     
176000 298.732803579538 -95.9727182331726 2788.98111008827982 164181.993166049 0.89022536803114105108 29.094144684975599802 193.96096456650400341 157.09908934256699808
    176000   0.5            298.7328      -95.972718      2788.9811      164181.99      0.89022537     157.09909    
180000 301.8903 267.6273
180000 297.63701530284 527.356306729496 2789.0849246410598425 164181.993166049 0.89022536803114105108 29.094144684975599802 193.96096456650400341 160.39909002791600301
    180000   0.5            297.63702      527.35631      2789.0849      164181.99      0.89022537     160.39909    
184000 298.373691125837 36.8280156947679 2788.7475676327198926 164181.993166049 0.89022536803114105108 29.094144684975599802 193.96096456650400341 164.23915160985501416
    184000   0.5            298.37369      36.828016      2788.7476      164181.99      0.89022537     164.23915    
188000 299.791840596962 530.446975104279 2789.4229044192102265 164181.993166049 0.89022536803114105108 29.094144684975599802 193.96096456650400341 167.61641553165199525
    188000   0.5            299.79184      530.44698      2789.4229      164181.99      0.89022537     167.61642    
190000 303.3617 272.9270
192000 294.868818041488 290.326187121152 2789.4791408573000808 164181.993166049 0.89022536803114105108 29.094144684975599802 193.96096456650400341 170.7111698482009956
    192000   0.5            294.86882      290.32619      2789.4791      164181.99      0.89022537     170.71117    
196000 295.926663025941 593.382566988372 2789.3666448740800661 164181.993166049 0.89022536803114105108 29.094144684975599802 193.96096456650400341 173.55969197159899409
    196000   0.5            295.92666      593.38257      2789.3666      164181.99      0.89022537     173.55969    
200000 296.6629 278.0335
200000 298.595758653827 333.933939102331 2789.2986778238500847 164181.993166049 0.89022536803114105108 29.094144684975599802 193.96096456650400341 177.47184068029400805
    200000   0.5            298.59576      333.93394      2789.2987      164181.99      0.89022537     177.47184    
204000 299.66017676589 -505.892359739591 2789.2599192110801596 164181.993166049 0.89022536803114105108 29.094144684975599802 193.96096456650400341 180.35365693638399875
    204000   0.5            299.66018     -505.89236      2789.2599      164181.99      0.89022537     180.35366    
208000 297.108921965432 -256.152518351653 2789.3542319085800045 164181.993166049 0.89022536803114105108 29.094144684975599802 193.96096456650400341 183.70155468563200429
    208000   0.5            297.10892     -256.15252      2789.3542      164181.99      0.89022537     183.70155    
210000 313.7837 290.7640
212000 298.705503728972 -31.0296919244926 2789.0439796739201483 164181.993166049 0.89022536803114105108 29.094144684975599802 193.96096456650400341 186.77480638544599856
    212000   0.5            298.7055      -31.029692      2789.044       164181.99      0.89022537     186.77481    
216000 294.197692401319 239.549833980327 2789.1930109549198278 164181.993166049 0.89022536803114105108 29.094144684975599802 193.96096456650400341 189.33577297347000012
    216000   0.5            294.19769      239.54983      2789.193       164181.99      0.89022537     189.33577    
220000 316.7811 288.3242
220000 295.97437812634 174.957181447898 2789.4654736330298874 164181.993166049 0.89022536803114105108 29.094144684975599802 193.96096456650400341 192.57454372186199976
    220000   0.5            295.97438      174.95718      2789.4655      164181.99      0.89022537     192.57454    
224000 296.589933472449 -216.772246950857 2789.255115833670061 164181.993166049 0.89022536803114105108 29.094144684975599802 193.96096456650400341 195.52493078353398914
    224000   0.5            296.58993     -216.77225      2789.2551      164181.99      0.89022537     195.52493    
228000 292.21445270677 -2.05652465712182 2789.4247791157699794 164181.993166049 0.89022536803114105108 29.094144684975599802 193.96096456650400341 201.09138176121498987
    228000   0.5            292.21445     -2.0565247      2789.4248      164181.99      0.89022537     201.09138    
230000 313.3586 289.4674
232000 297.217991248361 216.141897452341 2789.3900043958001334 164181.993166049 0.89022536803114105108 29.094144684975599802 193.96096456650400341 205.83950298587799921
    232000   0.5            297.21799      216.1419       2789.39        164181.99      0.89022537     205.8395     
236000 297.147761525157 -355.113336349536 2789.4043265638601952 164181.993166049 0.89022536803114105108 29.094144684975599802 193.96096456650400341 208.48279218466799989
    236000   0.5            297.14776     -355.11334      2789.4043      164181.99      0.89022537     208.48279    
240000 328.6629 284.7720
240000 297.477251870403 -131.518045750167 2789.3149734138301028 164181.993166049 0.89022536803114105108 29.094144684975599802 193.96096456650400341 211.30352033978999771
    240000   0.5            297.47725     -131.51805      2789.315       164181.99      0.89022537     211.30352    
244000 296.357691546453 624.315267004157 2789.24739681138999 164181.993166049 0.89022536803114105108 29.094144684975599802 193.96096456650400341 215.46312036710799021
    244000   0.5            296.35769      624.31527      2789.2474      164181.99      0.89022537     215.46312    
248000 295.624812651059 1033.20686872354 2789.2748502599301901 164181.993166049 0.89022536803114105108 29.094144684975599802 193.96096456650400341 219.01111022454000477
    248000   0.5            295.62481      1033.2069      2789.2749      164181.99      0.89022537     219.01111    
250000 328.0848 283.7047
252000 294.440101424504 356.475067594285 2789.1187251584001388 164181.993166049 0.89022536803114105108 29.094144684975599802 193.96096456650400341 223.32902039874599609
    252000   0.5            294.4401       356.47507      2789.1187      164181.99      0.89022537     223.32902    
256000 298.569282832987 574.964156833728 2788.8597763164498247 164181.993166049 0.89022536803114105108 29.094144684975599802 193.96096456650400341 226.11180378773900657
    256000   0.5            298.56928      574.96416      2788.8598      164181.99      0.89022537     226.1118     
260000 312.8848 274.8215
260000 297.584444749654 410.846260987676 2789.1607175613498839 164181.993166049 0.89022536803114105108 29.094144684975599802 193.96096456650400341 230.55815832536299581
    260000   0.5            297.58444      410.84626      2789.1607      164181.99      0.89022537     230.55816    
264000 296.104115469089 487.609926042417 2789.2425216285901115 164181.993166049 0.89022536803114105108 29.094144684975599802 193.96096456650400341 233.23461942300698979
    264000   0.5            296.10412      487.60993      2789.2425      164181.99      0.89022537     233.23462    
268000 296.739751014811 324.422143219416 2788.9479081977201531 164181.993166049 0.89022536803114105108 29.094144684975599802 193.96096456650400341 237.70580682352300528
    268000   0.5            296.73975      324.42214      2788.9479      164181.99      0.89022537     237.70581    
270000 327.3390 286.3249
272000 297.728249302336 115.994027781826 2788.996621342169874 164181.993166049 0.89022536803114105108 29.094144684975599802 193.96096456650400341 240.34062069947199802
    272000   0.5            297.72825      115.99403      2788.9966      164181.99      0.89022537     240.34062    
276000 300.042671884673 599.573348023842 2788.7079941288698137 164181.993166049 0.89022536803114105108 29.094144684975599802 193.96096456650400341 244.15062860562400715
    276000   0.5            300.04267      599.57335      2788.708       164181.99      0.89022537     244.15063    
280000 313.8828 274.3543
280000 294.640881987705 151.540816510501 2789.250905685899852 164181.993166049 0.89022536803114105108 29.094144684975599802 193.96096456650400341 247.75175612545899639
    280000   0.5            294.64088      151.54082      2789.2509      164181.99      0.89022537     247.75176    
284000 299.268216943162 43.2232765045442 2789.3393500758002119 164181.993166049 0.89022536803114105108 29.094144684975599802 193.96096456650400341 251.69875805419698622
    284000   0.5            299.26822      43.223277      2789.3394      164181.99      0.89022537     251.69876    
288000 297.625759637383 586.559162506123 2789.0391594116399574 164181.993166049 0.89022536803114105108 29.094144684975599802 193.96096456650400341 255.93990427951101196
    288000   0.5            297.62576      586.55916      2789.0392      164181.99      0.89022537     255.9399     
290000 316.2317 271.0416
292000 296.756888612352 696.078778762786 2789.1551515125697733 164181.993166049 0.89022536803114105108 29.094144684975599802 193.96096456650400341 259.15361943803600298
    292000   0.5            296.75689      696.07878      2789.1552      164181.99      0.89022537     259.15362    
296000 297.551099098049 265.102189324363 2789.4572652862398172 164181.993166049 0.89022536803114105108 29.094144684975599802 193.96096456650400341 261.60740426237100564
    296000   0.5            297.5511       265.10219      2789.4573      164181.99      0.89022537     261.6074     
300000 313.1651 278.7592
300000 296.83789411848 546.338219235781 2789.1850638833398079 164181.993166049 0.89022536803114105108 29.094144684975599802 193.96096456650400341 264.79507163538897885
    300000   0.5            296.83789      546.33822      2789.1851      164181.99      0.89022537     264.79507    
304000 293.20557087105 415.256069118755 2789.514363119149948 164181.993166049 0.89022536803114105108 29.094144684975599802 193.96096456650400341 270.54432428419198686
    304000   0.5            293.20557      415.25607      2789.5144      164181.99      0.89022537     270.54432    
308000 297.51421406867 -23.186038971864 2789.1659316533600759 164181.993166049 0.89022536803114105108 29.094144684975599802 193.96096456650400341 272.84647217061598212
    308000   0.5            297.51421     -23.186039      2789.1659      164181.99      0.89022537     272.84647    
310000 312.0833 281.3057
312000 298.417345072716 258.66821486272 2788.9458511546499722 164181.993166049 0.89022536803114105108 29.094144684975599802 193.96096456650400341 276.77328307710797617
    312000   0.5            298.41735      258.66821      2788.9459      164181.99      0.89022537     276.77328    
316000 295.910371465272 265.491749864433 2788.9850358889498239 164181.993166049 0.89022536803114105108 29.094144684975599802 193.96096456650400341 280.98440059542798508
    316000   0.5            295.91037      265.49175      2788.985       164181.99      0.89022537     280.9844     
320000 323.5230 272.8675
320000 301.6894680779 235.711131412918 2788.9674315229699459 164181.993166049 0.89022536803114105108 29.094144684975599802 193.96096456650400341 284.51483899063799754
    320000   0.5            301.68947      235.71113      2788.9674      164181.99      0.89022537     284.51484    
324000 297.28140807838 69.5972768034197 2789.1382091941900399 164181.993166049 0.89022536803114105108 29.094144684975599802 193.96096456650400341 287.12560290304998034
    324000   0.5            297.28141      69.597277      2789.1382      164181.99      0.89022537     287.1256     
328000 296.878712404874 -443.16372654348 2789.0242293658898234 164181.993166049 0.89022536803114105108 29.094144684975599802 193.96096456650400341 292.17636258904701663
    328000   0.5            296.87871     -443.16373      2789.0242      164181.99      0.89022537     292.17636    
330000 326.4051 276.3797
332000 297.460612188509 37.707982143781 2789.1074441654100156 164181.993166049 0.89022536803114105108 29.094144684975599802 193.96096456650400341 295.92811301003501967
    332000   0.5            297.46061      37.707982      2789.1074      164181.99      0.89022537     295.92811    
336000 296.018586292982 153.325382799092 2789.1455958093001755 164181.993166049 0.89022536803114105108 29.094144684975599802 193.96096456650400341 301.4583359490330281
    336000   0.5            296.01859      153.32538      2789.1456      164181.99      0.89022537     301.45834    
340000 306.0365 277.1836
340000 301.294033317103 -28.2328494773146 2788.9002128554197952 164181.993166049 0.89022536803114105108 29.094144684975599802 193.96096456650400341 304.2847376165009905
    340000   0.5            301.29403     -28.232849      2788.9002      164181.99      0.89022537     304.28474    
344000 295.12507842152 241.610912539346 2789.0692041229199276 164181.993166049 0.89022536803114105108 29.094144684975599802 193.96096456650400341 307.30437562253098349
    344000   0.5            295.12508      241.61091      2789.0692      164181.99      0.89022537     307.30438    
348000 299.537737856918 -68.7874373559692 2788.8279116878197783 164181.993166049 0.89022536803114105108 29.094144684975599802 193.96096456650400341 311.21471947369997224
    348000   0.5            299.53774     -68.787437      2788.8279      164181.99      0.89022537     311.21472    
350000 338.9422 275.4720
352000 297.497809898384 -39.1354538481379 2788.8862093947300309 164181.993166049 0.89022536803114105108 29.094144684975599802 193.96096456650400341 314.47840404009400572
    352000   0.5            297.49781     -39.135454      2788.8862      164181.99      0.89022537     314.4784     
356000 294.634176665968 -92.7513987572594 2788.8969205037001302 164181.993166049 0.89022536803114105108 29.094144684975599802 193.96096456650400341 317.88051387534397918
    356000   0.5            294.63418     -92.751399      2788.8969      164181.99      0.89022537     317.88051    
360000 311.9668 284.5705
360000 297.419037650906 32.6262479225676 2788.9135377385300671 164181.993166049 0.89022536803114105108 29.094144684975599802 193.96096456650400341 322.20306876890498415
    360000   0.5            297.41904      32.626248      2788.9135      164181.99      0.89022537     322.20307    
364000 297.456338510555 654.359915717628 2789.0267326814400803 164181.993166049 0.89022536803114105108 29.094144684975599802 193.96096456650400341 325.05334213448298897
    364000   0.5            297.45634      654.35992      2789.0267      164181.99      0.89022537     325.05334    
368000 297.444450847827 -700.002084084125 2788.9759203483999954 164181.993166049 0.89022536803114105108 29.094144684975599802 193.96096456650400341 327.21910398123401365
    368000   0.5            297.44445     -700.00208      2788.9759      164181.99      0.89022537     327.2191     
370000 316.7973 272.4600
372000 296.251084945022 -219.292744705563 2789.1375616794498455 164181.993166049 0.89022536803114105108 29.094144684975599802 193.96096456650400341 330.18835352445302078
    372000   0.5            296.25108     -219.29274      2789.1376      164181.99      0.89022537     330.18835    
376000 294.293797850659 -120.994655653815 2789.3781530125697827 164181.993166049 0.89022536803114105108 29.094144684975599802 193.96096456650400341 333.08840644579498758
    376000   0.5            294.2938      -120.99466      2789.3782      164181.99      0.89022537     333.08841    
380000 323.9845 273.4097
380000 295.459210688657 450.563473656307 2789.3837562413500564 164181.993166049 0.89022536803114105108 29.094144684975599802 193.96096456650400341 335.88710745942000813
    380000   0.5            295.45921      450.56347      2789.3838      164181.99      0.89022537     335.88711    
384000 294.713317050371 589.401892376875 2789.5213212746498357 164181.993166049 0.89022536803114105108 29.094144684975599802 193.96096456650400341 339.8174692836969939
    384000   0.5            294.71332      589.40189      2789.5213      164181.99      0.89022537     339.81747    
388000 291.891160838883 229.019909082136 2789.7187007147099393 164181.993166049 0.89022536803114105108 29.094144684975599802 193.96096456650400341 343.27166749751597763
    388000   0.5            291.89116      229.01991      2789.7187      164181.99      0.89022537     343.27167    
390000 334.1291 269.7138
392000 298.936827615557 116.578017410093 2789.7199393746000169 164181.993166049 0.89022536803114105108 29.094144684975599802 193.96096456650400341 346.05550537431298608
    392000   0.5            298.93683      116.57802      2789.7199      164181.99      0.89022537     346.05551    
396000 295.73646688272 396.826663233014 2789.5841205346100651 164181.993166049 0.89022536803114105108 29.094144684975599802 193.96096456650400341 348.68791274533498381
    396000   0.5            295.73647      396.82666      2789.5841      164181.99      0.89022537     348.68791    
400000 323.8627 272.9434
400000 297.3763128727 529.564034555766 2789.5062753278198215 164181.993166049 0.89022536803114105108 29.094144684975599802 193.96096456650400341 351.62362432101298282
    400000   0.5            297.37631      529.56403      2789.5063      164181.99      0.89022537     351.62362    
404000 296.827252949442 360.340690945933 2789.2515582631399411 164181.993166049 0.89022536803114105108 29.094144684975599802 193.96096456650400341 356.41593001084197567
    404000   0.5            296.82725      360.34069      2789.2516      164181.99      0.89022537     356.41593    
408000 297.998949088592 303.0200801564 2789.0541289927000435 164181.993166049 0.89022536803114105108 29.094144684975599802 193.96096456650400341 360.52115344228798222
    408000   0.5            297.99895      303.02008      2789.0541      164181.99      0.89022537     360.52115    
410000 317.1195 291.0187
412000 299.380908781001 663.082587604141 2789.0164423160199476 164181.993166049 0.89022536803114105108 29.094144684975599802 193.96096456650400341 363.70986967631500875
    412000   0.5            299.38091      663.08259      2789.0164      164181.99      0.89022537     363.70987    
416000 298.402320315993 -492.814085875033 2788.9963507431098151 164181.993166049 0.89022536803114105108 29.094144684975599802 193.96096456650400341 368.00872439465297248
    416000   0.5            298.40232     -492.81409      2788.9964      164181.99      0.89022537     368.00872    
420000 330.1096 278.0440
420000 297.17826762173 653.289222134592 2788.8678097478500604 164181.993166049 0.89022536803114105108 29.094144684975599802 193.96096456650400341 370.95329047678302459
    420000   0.5            297.17827      653.28922      2788.8678      164181.99      0.89022537     370.95329    
424000 300.273313632003 274.080306493855 2789.0049906950598597 164181.993166049 0.89022536803114105108 29.094144684975599802 193.96096456650400341 374.9720414105129862
    424000   0.5            300.27331      274.08031      2789.005       164181.99      0.89022537     374.97204    
428000 298.989655504372 164.757499554422 2789.2651428284598296 164181.993166049 0.89022536803114105108 29.094144684975599802 193.96096456650400341 378.816542704203016
    428000   0.5            298.98966      164.7575       2789.2651      164181.99      0.89022537     378.81654    
430000 327.4687 273.4370
432000 296.879011258061 -151.865124862897 2789.4329171905201292 164181.993166049 0.89022536803114105108 29.094144684975599802 193.96096456650400341 382.58765213358799429
    432000   0.5            296.87901     -151.86512      2789.4329      164181.99      0.89022537     382.58765    
436000 299.60286872441 30.9635026383061 2789.2879066392501954 164181.993166049 0.89022536803114105108 29.094144684975599802 193.96096456650400341 385.76188538146999463
    436000   0.5            299.60287      30.963503      2789.2879      164181.99      0.89022537     385.76189    
440000 342.3326 271.8969
440000 296.462176865198 304.801410276718 2789.445268920359922 164181.993166049 0.89022536803114105108 29.094144684975599802 193.96096456650400341 388.97841068108698437
    440000   0.5            296.46218      304.80141      2789.4453      164181.99      0.89022537     388.97841    
444000 297.676587475428 -221.327562761589 2789.5650706882001941 164181.993166049 0.89022536803114105108 29.094144684975599802 193.96096456650400341 393.68214159502099392
    444000   0.5            297.67659     -221.32756      2789.5651      164181.99      0.89022537     393.68214    
448000 295.965347182903 763.760330588481 2789.7352795251099451 164181.993166049 0.89022536803114105108 29.094144684975599802 193.96096456650400341 397.39000625469498118
    448000   0.5            295.96535      763.76033      2789.7353      164181.99      0.89022537     397.39001    
450000 318.4596 257.1486
452000 298.077274561591 243.326881385147 2789.7525863225600915 164181.993166049 0.89022536803114105108 29.094144684975599802 193.96096456650400341 400.74400284817500051
    452000   0.5            298.07727      243.32688      2789.7526      164181.99      0.89022537     400.744      
456000 296.53810438706 -387.086663126942 2789.5812618293898595 164181.993166049 0.89022536803114105108 29.094144684975599802 193.96096456650400341 403.85085017356198023
    456000   0.5            296.5381      -387.08666      2789.5813      164181.99      0.89022537     403.85085    
460000 325.9935 279.0434
460000 295.050352392071 365.459409807975 2789.8440793295499134 164181.993166049 0.89022536803114105108 29.094144684975599802 193.96096456650400341 407.20110501319800278
    460000   0.5            295.05035      365.45941      2789.8441      164181.99      0.89022537     407.20111    
464000 295.946138562599 412.606333426215 2789.9090560281701983 164181.993166049 0.89022536803114105108 29.094144684975599802 193.96096456650400341 410.54796142842002382
    464000   0.5            295.94614      412.60633      2789.9091      164181.99      0.89022537     410.54796    
468000 293.286684057876 177.639010683705 2789.8414337840199551 164181.993166049 0.89022536803114105108 29.094144684975599802 193.96096456650400341 413.11620373940002082
    468000   0.5            293.28668      177.63901      2789.8414      164181.99      0.89022537     413.1162     
470000 337.8113 274.7003
472000 297.573078243173 458.248823698815 2789.5731480834001559 164181.993166049 0.89022536803114105108 29.094144684975599802 193.96096456650400341 416.08840697686798649
    472000   0.5            297.57308      458.24882      2789.5731      164181.99      0.89022537     416.08841    
476000 296.895043070825 -70.0708825593835 2789.2343423933498343 164181.993166049 0.89022536803114105108 29.094144684975599802 193.96096456650400341 418.34997150460702642
    476000   0.5            296.89504     -70.070883      2789.2343      164181.99      0.89022537     418.34997    
480000 333.4888 250.7265
480000 293.062653214379 -113.170395197466 2789.6064769757399517 164181.993166049 0.89022536803114105108 29.094144684975599802 193.96096456650400341 421.84777250925901626
    480000   0.5            293.06265     -113.1704       2789.6065      164181.99      0.89022537     421.84777    
484000 294.533781919371 -14.7618323960386 2789.3602656622601899 164181.993166049 0.89022536803114105108 29.094144684975599802 193.96096456650400341 425.18492551423702253
    484000   0.5            294.53378     -14.761832      2789.3603      164181.99      0.89022537     425.18493    
488000 296.17498739236 539.105244596508 2789.2874646562499947 164181.993166049 0.89022536803114105108 29.094144684975599802 193.96096456650400341 427.9772887352319799
    488000   0.5            296.17499      539.10524      2789.2875      164181.99      0.89022537     427.97729    
490000 330.5539 263.6811
492000 299.827294135126 -160.473032448484 2789.4969541025197941 164181.993166049 0.89022536803114105108 29.094144684975599802 193.96096456650400341 431.92577033289700239
    492000   0.5            299.82729     -160.47303      2789.497       164181.99      0.89022537     431.92577    
496000 294.277770628813 145.196226026985 2789.5245466791598119 164181.993166049 0.89022536803114105108 29.094144684975599802 193.96096456650400341 433.80241457396101623
    496000   0.5            294.27777      145.19623      2789.5245      164181.99      0.89022537     433.80241    
500000 320.8201 275.7325
500000 296.213602719228 385.1573391422 2789.6777756255501117 164181.993166049 0.89022536803114105108 29.094144684975599802 193.96096456650400341 437.03635136111898873
    500000   0.5            296.2136       385.15734      2789.6778      164181.99      0.89022537     437.03635    
504000 293.436646354092 331.882051654973 2789.8235235782699419 164181.993166049 0.89022536803114105108 29.094144684975599802 193.96096456650400341 439.98981511825502366
    504000   0.5            293.43665      331.88205      2789.8235      164181.99      0.89022537     439.98982    
508000 298.230330117473 123.662559337739 2789.2197777799101459 164181.993166049 0.89022536803114105108 29.094144684975599802 193.96096456650400341 444.4353809052669817
    508000   0.5            298.23033      123.66256      2789.2198      164181.99      0.89022537     444.43538    
510000 328.4045 274.2924
512000 299.534272745631 28.1867725387261 2789.3913314465798976 164181.993166049 0.89022536803114105108 29.094144684975599802 193.96096456650400341 451.11946320995997439
    512000   0.5            299.53427      28.186773      2789.3913      164181.99      0.89022537     451.11946    
516000 298.446668445666 -87.1657808384551 2789.2924083211901234 164181.993166049 0.89022536803114105108 29.094144684975599802 193.96096456650400341 454.10814818626300848
    516000   0.5            298.44667     -87.165781      2789.2924      164181.99      0.89022537     454.10815    
520000 341.4474 262.7089
520000 299.971919086611 109.188091490309 2789.0678851001998737 164181.993166049 0.89022536803114105108 29.094144684975599802 193.96096456650400341 457.37073209394299056
    520000   0.5            299.97192      109.18809      2789.0679      164181.99      0.89022537     457.37073    
524000 298.156398309502 -300.672874712682 2789.2605225424199489 164181.993166049 0.89022536803114105108 29.094144684975599802 193.96096456650400341 460.598135711901989
    524000   0.5            298.1564      -300.67287      2789.2605      164181.99      0.89022537     460.59814    
528000 290.833880952941 576.627132973859 2789.305298589189988 164181.993166049 0.89022536803114105108 29.094144684975599802 193.96096456650400341 463.92233013842502487
    528000   0.5            290.83388      576.62713      2789.3053      164181.99      0.89022537     463.92233    
530000 325.7706 261.1621
532000 297.475153645238 344.47129293831 2789.4979154733700852 164181.993166049 0.89022536803114105108 29.094144684975599802 193.96096456650400341 467.84059183000397297
    532000   0.5            297.47515      344.47129      2789.4979      164181.99      0.89022537     467.84059    
536000 301.090990570072 63.8413950895513 2789.4148489293597777 164181.993166049 0.89022536803114105108 29.094144684975599802 193.96096456650400341 471.19532847009401166
    536000   0.5            301.09099      63.841395      2789.4148      164181.99      0.89022537     471.19533    
540000 317.9511 261.7946
540000 296.809112864777 355.045200265696 2789.306040437610136 164181.993166049 0.89022536803114105108 29.094144684975599802 193.96096456650400341 474.66242503556202337
    540000   0.5            296.80911      355.0452       2789.306       164181.99      0.89022537     474.66243    
544000 295.289519546365 60.1262007948119 2789.1771307740900738 164181.993166049 0.89022536803114105108 29.094144684975599802 193.96096456650400341 478.11027309226602711
    544000   0.5            295.28952      60.126201      2789.1771      164181.99      0.89022537     478.11027    
548000 297.995235259722 86.8744718815001 2789.2220806172199445 164181.993166049 0.89022536803114105108 29.094144684975599802 193.96096456650400341 481.15754989342997305
    548000   0.5            297.99524      86.874472      2789.2221      164181.99      0.89022537     481.15755    
550000 322.8335 264.1076
552000 300.061011448135 153.501849283387 2789.2253426893098549 164181.993166049 0.89022536803114105108 29.094144684975599802 193.96096456650400341 484.9280066480549749
    552000   0.5            300.06101      153.50185      2789.2253      164181.99      0.89022537     484.92801    
556000 296.184797788963 -312.482693087974 2789.4610236481398715 164181.993166049 0.89022536803114105108 29.094144684975599802 193.96096456650400341 487.35911345460800703
    556000   0.5            296.1848      -312.48269      2789.461       164181.99      0.89022537     487.35911    
560000 331.1454 259.8937
560000 296.32688258747 -110.784684188338 2789.4253017313799319 164181.993166049 0.89022536803114105108 29.094144684975599802 193.96096456650400341 491.65939382423800907
    560000   0.5            296.32688     -110.78468      2789.4253      164181.99      0.89022537     491.65939    
564000 296.391990340462 273.16654459374 2789.4382586189099129 164181.993166049 0.89022536803114105108 29.094144684975599802 193.96096456650400341 494.59705167751400268
    564000   0.5            296.39199      273.16654      2789.4383      164181.99      0.89022537     494.59705    
568000 294.855546246638 -75.4445406158553 2789.4379260906698619 164181.993166049 0.89022536803114105108 29.094144684975599802 193.96096456650400341 498.37957539668201434
    568000   0.5            294.85555     -75.444541      2789.4379      164181.99      0.89022537     498.37958    
570000 317.6582 265.0194
572000 293.154978684101 165.326772069749 2789.3990088671598642 164181.993166049 0.89022536803114105108 29.094144684975599802 193.96096456650400341 501.22472339313901557
    572000   0.5            293.15498      165.32677      2789.399       164181.99      0.89022537     501.22472    
576000 296.887324994933 -26.6832905115196 2789.3794189542300046 164181.993166049 0.89022536803114105108 29.094144684975599802 193.96096456650400341 504.31134941652800308
    576000   0.5            296.88732     -26.683291      2789.3794      164181.99      0.89022537     504.31135    
580000 328.1431 271.5180
580000 295.795495750209 -134.287250618993 2789.4311875623097876 164181.993166049 0.89022536803114105108 29.094144684975599802 193.96096456650400341 507.25213794357398456
    580000   0.5            295.7955      -134.28725      2789.4312      164181.99      0.89022537     507.25214    
584000 298.28414421307 -219.485875258588 2789.3076796686000307 164181.993166049 0.89022536803114105108 29.094144684975599802 193.96096456650400341 512.25642975640300847
    584000   0.5            298.28414     -219.48588      2789.3077      164181.99      0.89022537     512.25643    
588000 299.204697961079 139.60868379319 2789.1020386930899804 164181.993166049 0.89022536803114105108 29.094144684975599802 193.96096456650400341 515.55495235609805604
    588000   0.5            299.2047       139.60868      2789.102       164181.99      0.89022537     515.55495    
590000 330.7610 268.9960
592000 295.34833956067 -62.2603031904006 2789.4305958298300538 164181.993166049 0.89022536803114105108 29.094144684975599802 193.96096456650400341 518.95383532931396076
    592000   0.5            295.34834     -62.260303      2789.4306      164181.99      0.89022537     518.95384    
596000 299.049133601526 -49.3409420582933 2789.3142255727298107 164181.993166049 0.89022536803114105108 29.094144684975599802 193.96096456650400341 521.88129485516299155
    596000   0.5            299.04913     -49.340942      2789.3142      164181.99      0.89022537     521.88129    
600000 331.2607 263.2787
600000 296.770866963367 60.6112299818443 2789.5358771537498797 164181.993166049 0.89022536803114105108 29.094144684975599802 193.96096456650400341 524.61738808854795479
    600000   0.5            296.77087      60.61123       2789.5359      164181.99      0.89022537     524.61739    
604000 293.832357501468 380.442004664183 2789.9497970058801002 164181.993166049 0.89022536803114105108 29.094144684975599802 193.96096456650400341 529.07526251362696712
    604000   0.5            293.83236      380.442        2789.9498      164181.99      0.89022537     529.07526    
608000 294.429197482695 552.991385464296 2790.0361674024002241 164181.993166049 0.89022536803114105108 29.094144684975599802 193.96096456650400341 532.27796632561796741
    608000   0.5            294.4292       552.99139      2790.0362      164181.99      0.89022537     532.27797    
610000 327.9845 270.8109
612000 300.651154371156 101.269311477001 2789.3384065756599739 164181.993166049 0.89022536803114105108 29.094144684975599802 193.96096456650400341 535.48117680742302582
    612000   0.5            300.65115      101.26931      2789.3384      164181.99      0.89022537     535.48118    
616000 298.820089931699 65.2007103706867 2789.2472432510498948 164181.993166049 0.89022536803114105108 29.094144684975599802 193.96096456650400341 538.43250477708102153
    616000   0.5            298.82009      65.20071       2789.2472      164181.99      0.89022537     538.4325     
620000 335.3159 262.1055
620000 297.936063537808 420.321694896507 2789.2527286762301628 164181.993166049 0.89022536803114105108 29.094144684975599802 193.96096456650400341 541.57427125142100977
    620000   0.5            297.93606      420.32169      2789.2527      164181.99      0.89022537     541.57427    
624000 298.721152536088 60.3037526206001 2789.2223990936099653 164181.993166049 0.89022536803114105108 29.094144684975599802 193.96096456650400341 545.15068939824698191
    624000   0.5            298.72115      60.303753      2789.2224      164181.99      0.89022537     545.15069    
628000 296.879248495521 477.711493226149 2789.4476567211199836 164181.993166049 0.89022536803114105108 29.094144684975599802 193.96096456650400341 547.77058949600802862
    628000   0.5            296.87925      477.71149      2789.4477      164181.99      0.89022537     547.77059    
630000 353.4016 275.3325
632000 299.016785436501 53.6836591336223 2789.5334640197302178 164181.993166049 0.89022536803114105108 29.094144684975599802 193.96096456650400341 550.46016297960795782
    632000   0.5            299.01679      53.683659      2789.5335      164181.99      0.89022537     550.46016    
636000 295.47002281951 891.092042449104 2789.5943530339600329 164181.993166049 0.89022536803114105108 29.094144684975599802 193.96096456650400341 553.57734541337902101
    636000   0.5            295.47002      891.09204      2789.5944      164181.99      0.89022537     553.57735    
640000 330.1925 273.4480
640000 294.423087128385 -179.430260937978 2789.4011276356300186 164181.993166049 0.89022536803114105108 29.094144684975599802 193.96096456650400341 556.59655935415798922
    640000   0.5            294.42309     -179.43026      2789.4011      164181.99      0.89022537     556.59656    
644000 295.674446008741 80.151122286796 2789.451010117630176 164181.993166049 0.89022536803114105108 29.094144684975599802 193.96096456650400341 559.19771191815505063
    644000   0.5            295.67445      80.151122      2789.451       164181.99      0.89022537     559.19771    
648000 294.34199022013 -50.278047238122 2789.6294584762999875 164181.993166049 0.89022536803114105108 29.094144684975599802 193.96096456650400341 562.84148967569899469
    648000   0.5            294.34199     -50.278047      2789.6295      164181.99      0.89022537     562.84149    
650000 328.1581 264.7676
652000 291.125343540122 347.705135316822 2789.8193610903499575 164181.993166049 0.89022536803114105108 29.094144684975599802 193.96096456650400341 567.3884627212870555
    652000   0.5            291.12534      347.70514      2789.8194      164181.99      0.89022537     567.38846    
656000 295.559872080826 247.212848200495 2789.535606860630196 164181.993166049 0.89022536803114105108 29.094144684975599802 193.96096456650400341 571.19266346823701497
    656000   0.5            295.55987      247.21285      2789.5356      164181.99      0.89022537     571.19266    
660000 319.5460 269.4832
660000 297.628843882355 353.503702729955 2789.4840130347902232 164181.993166049 0.89022536803114105108 29.094144684975599802 193.96096456650400341 574.97546171608894383
    660000   0.5            297.62884      353.5037       2789.484       164181.99      0.89022537     574.97546    
664000 295.860986912396 414.348437591549 2789.462021132550035 164181.993166049 0.89022536803114105108 29.094144684975599802 193.96096456650400341 578.34496077319795404
    664000   0.5            295.86099      414.34844      2789.462       164181.99      0.89022537     578.34496    
668000 296.408449265409 -545.18800248233 2789.4775499758698061 164181.993166049 0.89022536803114105108 29.094144684975599802 193.96096456650400341 580.6553298711289699
    668000   0.5            296.40845     -545.188        2789.4775      164181.99      0.89022537     580.65533    
670000 335.5225 266.0053
672000 300.734218431494 446.57213815241 2789.3459753635597735 164181.993166049 0.89022536803114105108 29.094144684975599802 193.96096456650400341 585.16866273242396801
    672000   0.5            300.73422      446.57214      2789.346       164181.99      0.89022537     585.16866    
676000 297.219512208295 -60.3807722976991 2789.3319782903599844 164181.993166049 0.89022536803114105108 29.094144684975599802 193.96096456650400341 588.53683947122101472
    676000   0.5            297.21951     -60.380772      2789.332       164181.99      0.89022537     588.53684    
680000 342.7952 263.6796
680000 298.765828300423 -21.0487107049226 2789.437024369160099 164181.993166049 0.89022536803114105108 29.094144684975599802 193.96096456650400341 592.04672667227396232
    680000   0.5            298.76583     -21.048711      2789.437       164181.99      0.89022537     592.04673    
684000 293.02025470256 -213.6084008445 2789.6231610591098615 164181.993166049 0.89022536803114105108 29.094144684975599802 193.96096456650400341 595.10088547704901885
    684000   0.5            293.02025     -213.6084       2789.6232      164181.99      0.89022537     595.10089    
688000 297.741154419153 -2.27283984032471 2789.5639872976198603 164181.993166049 0.89022536803114105108 29.094144684975599802 193.96096456650400341 597.54817893833103426
    688000   0.5            297.74115     -2.2728398      2789.564       164181.99      0.89022537     597.54818    
690000 356.1254 274.9613
692000 297.414480782222 400.534227955898 2789.3623243525998987 164181.993166049 0.89022536803114105108 29.094144684975599802 193.96096456650400341 600.0445953304899831
    692000   0.5            297.41448      400.53423      2789.3623      164181.99      0.89022537     600.0446     
696000 295.402976128473 -309.151358519868 2789.5440958214298917 164181.993166049 0.89022536803114105108 29.094144684975599802 193.96096456650400341 603.65980059824698856
    696000   0.5            295.40298     -309.15136      2789.5441      164181.99      0.89022537     603.6598     
700000 360.2717 275.6732
700000 292.509089711928 199.862571495148 2789.5893799059499543 164181.993166049 0.89022536803114105108 29.094144684975599802 193.96096456650400341 607.59199085586794808
    700000   0.5            292.50909      199.86257      2789.5894      164181.99      0.89022537     607.59199    
704000 296.325923097962 -220.016496237262 2789.4618210367098072 164181.993166049 0.89022536803114105108 29.094144684975599802 193.96096456650400341 610.28603193757203371
    704000   0.5            296.32592     -220.0165       2789.4618      164181.99      0.89022537     610.28603    
708000 300.170964274406 244.674837143025 2789.6382559852099803 164181.993166049 0.89022536803114105108 29.094144684975599802 193.96096456650400341 614.68213637758503864
    708000   0.5            300.17096      244.67484      2789.6383      164181.99      0.89022537     614.68214    
710000 337.4954 274.7929
712000 296.60597704068 686.33210885133 2789.9626245554500201 164181.993166049 0.89022536803114105108 29.094144684975599802 193.96096456650400341 620.54895340083101019
    712000   0.5            296.60598      686.33211      2789.9626      164181.99      0.89022537     620.54895    
716000 298.915577467836 -176.698146703085 2789.671590132089932 164181.993166049 0.89022536803114105108 29.094144684975599802 193.96096456650400341 624.52841160078901339
    716000   0.5            298.91558     -176.69815      2789.6716      164181.99      0.89022537     624.52841    
720000 343.2651 272.2327
720000 297.58488230693 -107.808486774258 2789.5990708815797916 164181.993166049 0.89022536803114105108 29.094144684975599802 193.96096456650400341 627.32133844324300753
    720000   0.5            297.58488     -107.80849      2789.5991      164181.99      0.89022537     627.32134    
724000 297.943626616823 153.914965873041 2789.5053696111899626 164181.993166049 0.89022536803114105108 29.094144684975599802 193.96096456650400341 630.76687874731396732
    724000   0.5            297.94363      153.91497      2789.5054      164181.99      0.89022537     630.76688    
728000 293.005374090155 628.895111086169 2789.6108766759298305 164181.993166049 0.89022536803114105108 29.094144684975599802 193.96096456650400341 633.42947433341203123
    728000   0.5            293.00537      628.89511      2789.6109      164181.99      0.89022537     633.42947    
730000 355.8694 268.0758
732000 293.301843368936 322.203537679826 2789.4211868777001655 164181.993166049 0.89022536803114105108 29.094144684975599802 193.96096456650400341 637.42578986480498315
    732000   0.5            293.30184      322.20354      2789.4212      164181.99      0.89022537     637.42579    
736000 295.732920254866 846.490595767082 2789.3381697319100567 164181.993166049 0.89022536803114105108 29.094144684975599802 193.96096456650400341 639.98593981434794387
    736000   0.5            295.73292      846.4906       2789.3382      164181.99      0.89022537     639.98594    
740000 332.4758 278.5270
740000 293.241849249822 -154.981096746831 2789.7196057095998185 164181.993166049 0.89022536803114105108 29.094144684975599802 193.96096456650400341 643.28001564423300351
    740000   0.5            293.24185     -154.9811       2789.7196      164181.99      0.89022537     643.28002    
744000 295.391016013756 544.664663687209 2789.7385638703099175 164181.993166049 0.89022536803114105108 29.094144684975599802 193.96096456650400341 646.36006222838398116
    744000   0.5            295.39102      544.66466      2789.7386      164181.99      0.89022537     646.36006    
748000 296.362947582749 60.4227534801063 2789.6658864285200252 164181.993166049 0.89022536803114105108 29.094144684975599802 193.96096456650400341 648.57491316814298443
    748000   0.5            296.36295      60.422753      2789.6659      164181.99      0.89022537     648.57491    
750000 336.5209 260.5609
752000 299.07042286629 321.525226988665 2789.363287456550097 164181.993166049 0.89022536803114105108 29.094144684975599802 193.96096456650400341 651.93408605074102979
    752000   0.5            299.07042      321.52523      2789.3633      164181.99      0.89022537     651.93409    
756000 295.755877281942 -113.142526823067 2789.530107570400105 164181.993166049 0.89022536803114105108 29.094144684975599802 193.96096456650400341 655.62957509291504721
    756000   0.5            295.75588     -113.14253      2789.5301      164181.99      0.89022537     655.62958    
760000 335.4844 265.9404
760000 295.36777780045 -363.512265207658 2789.947824985889838 164181.993166049 0.89022536803114105108 29.094144684975599802 193.96096456650400341 660.61531544689205475
    760000   0.5            295.36778     -363.51227      2789.9478      164181.99      0.89022537     660.61532    
764000 294.675640230803 -222.888211675117 2789.8318269627598056 164181.993166049 0.89022536803114105108 29.094144684975599802 193.96096456650400341 662.83600353742895095
    764000   0.5            294.67564     -222.88821      2789.8318      164181.99      0.89022537     662.836      
768000 295.784405542214 470.302908498655 2789.7389330141900246 164181.993166049 0.89022536803114105108 29.094144684975599802 193.96096456650400341 665.34297030446305143
    768000   0.5            295.78441      470.30291      2789.7389      164181.99      0.89022537     665.34297    
770000 332.7849 252.5062
772000 296.306370257984 523.171135867345 2789.854411675729807 164181.993166049 0.89022536803114105108 29.094144684975599802 193.96096456650400341 668.82759562657395236
    772000   0.5            296.30637      523.17114      2789.8544      164181.99      0.89022537     668.8276     
776000 294.352826304362 655.417127390093 2789.8462103169599686 164181.993166049 0.89022536803114105108 29.094144684975599802 193.96096456650400341 671.63922226553597739
    776000   0.5            294.35283      655.41713      2789.8462      164181.99      0.89022537     671.63922    
780000 351.3158 243.1727
780000 296.142790121372 153.959614065138 2789.6783328022202113 164181.993166049 0.89022536803114105108 29.094144684975599802 193.96096456650400341 674.82567187173196999
    780000   0.5            296.14279      153.95961      2789.6783      164181.99      0.89022537     674.82567    
784000 298.57837802098 -45.6289605956034 2789.5230468280601599 164181.993166049 0.89022536803114105108 29.094144684975599802 193.96096456650400341 678.58365038571196237
    784000   0.5            298.57838     -45.628961      2789.523       164181.99      0.89022537     678.58365    
788000 294.616017475095 386.817910973875 2789.7177773437801989 164181.993166049 0.89022536803114105108 29.094144684975599802 193.96096456650400341 681.13253006610796092
    788000   0.5            294.61602      386.81791      2789.7178      164181.99      0.89022537     681.13253    
790000 334.2274 273.6522
792000 296.943024049646 115.731312207471 2789.5240778601801139 164181.993166049 0.89022536803114105108 29.094144684975599802 193.96096456650400341 684.78677162590304306
    792000   0.5            296.94302      115.73131      2789.5241      164181.99      0.89022537     684.78677    
796000 299.21155975076 323.462910182728 2789.4559660153599907 164181.993166049 0.89022536803114105108 29.094144684975599802 193.96096456650400341 688.4670985952210458
    796000   0.5            299.21156      323.46291      2789.456       164181.99      0.89022537     688.4671     
800000 324.2135 264.7198
800000 296.755305542123 392.067771812653 2789.4255109664300107 164181.993166049 0.89022536803114105108 29.094144684975599802 193.96096456650400341 691.19195954960605377
    800000   0.5            296.75531      392.06777      2789.4255      164181.99      0.89022537     691.19196    
804000 299.296452386554 -130.78421705706 2789.5532432241298011 164181.993166049 0.89022536803114105108 29.094144684975599802 193.96096456650400341 695.0997968017909443
    804000   0.5            299.29645     -130.78422      2789.5532      164181.99      0.89022537     695.0998     
808000 298.173210372075 149.971465243936 2789.659959357849857 164181.993166049 0.89022536803114105108 29.094144684975599802 193.96096456650400341 698.22566869318302452
    808000   0.5            298.17321      149.97147      2789.66        164181.99      0.89022537     698.22567    
810000 332.1913 258.5062
812000 298.967178528498 433.293904626036 2789.6515102361800018 164181.993166049 0.89022536803114105108 29.094144684975599802 193.96096456650400341 701.13226212941299309
    812000   0.5            298.96718      433.2939       2789.6515      164181.99      0.89022537     701.13226    
816000 295.46633395561 -126.598124285365 2789.9772756872098398 164181.993166049 0.89022536803114105108 29.094144684975599802 193.96096456650400341 704.75789246519696007
    816000   0.5            295.46633     -126.59812      2789.9773      164181.99      0.89022537     704.75789    
820000 329.7454 259.9277
820000 297.02693977612 60.06946243314 2790.0554919551100284 164181.993166049 0.89022536803114105108 29.094144684975599802 193.96096456650400341 708.53748521119598536
    820000   0.5            297.02694      60.069462      2790.0555      164181.99      0.89022537     708.53749    
824000 300.731904205666 214.119031775083 2789.8180673391498203 164181.993166049 0.89022536803114105108 29.094144684975599802 193.96096456650400341 712.94799133689195969
    824000   0.5            300.7319       214.11903      2789.8181      164181.99      0.89022537     712.94799    
828000 294.379162209804 390.509163650833 2789.9300783179401151 164181.993166049 0.89022536803114105108 29.094144684975599802 193.96096456650400341 716.31645582168096098
    828000   0.5            294.37916      390.50916      2789.9301      164181.99      0.89022537     716.31646    
830000 320.8800 278.8115
832000 294.853925194282 124.849178387956 2789.8358714572900681 164181.993166049 0.89022536803114105108 29.094144684975599802 193.96096456650400341 719.04293030850499235
    832000   0.5            294.85393      124.84918      2789.8359      164181.99      0.89022537     719.04293    
836000 297.208167020835 124.970983933076 2789.9435869561998516 164181.993166049 0.89022536803114105108 29.094144684975599802 193.96096456650400341 721.69727404563695927
    836000   0.5            297.20817      124.97098      2789.9436      164181.99      0.89022537     721.69727    
840000 321.7677 280.1214
840000 295.997631587892 30.8307193844917 2789.9020948262700585 164181.993166049 0.89022536803114105108 29.094144684975599802 193.96096456650400341 724.92201628951602288
    840000   0.5            295.99763      30.830719      2789.9021      164181.99      0.89022537     724.92202    
844000 292.974906344602 80.2869637033683 2789.6315181672298422 164181.993166049 0.89022536803114105108 29.094144684975599802 193.96096456650400341 728.43839771827697405
    844000   0.5            292.97491      80.286964      2789.6315      164181.99      0.89022537     728.4384     
848000 294.59831808178 171.311724820116 2789.6789984352999454 164181.993166049 0.89022536803114105108 29.094144684975599802 193.96096456650400341 731.21648083764398507
    848000   0.5            294.59832      171.31172      2789.679       164181.99      0.89022537     731.21648    
850000 331.2115 266.1640
852000 298.532161770311 216.635792227594 2789.5219954838898957 164181.993166049 0.89022536803114105108 29.094144684975599802 193.96096456650400341 734.51923473166004896
    852000   0.5            298.53216      216.63579      2789.522       164181.99      0.89022537     734.51923    
856000 296.484676507814 -641.915011779282 2789.302629011639965 164181.993166049 0.89022536803114105108 29.094144684975599802 193.96096456650400341 737.67150690867902085
    856000   0.5            296.48468     -641.91501      2789.3026      164181.99      0.89022537     737.67151    
860000 348.6361 267.5136
860000 296.78999743696 702.266994599513 2789.3096835372598434 164181.993166049 0.89022536803114105108 29.094144684975599802 193.96096456650400341 740.61001732896704652
    860000   0.5            296.79         702.26699      2789.3097      164181.99      0.89022537     740.61002    
864000 294.077520187922 -168.324814232676 2789.6248982140000408 164181.993166049 0.89022536803114105108 29.094144684975599802 193.96096456650400341 743.7525916437369915
    864000   0.5            294.07752     -168.32481      2789.6249      164181.99      0.89022537     743.75259    
868000 297.322286727404 -104.764316081195 2789.627204566079854 164181.993166049 0.89022536803114105108 29.094144684975599802 193.96096456650400341 746.92626368040896523
    868000   0.5            297.32229     -104.76432      2789.6272      164181.99      0.89022537     746.92626    
870000 325.8316 264.2858
872000 296.273634453018 654.731290491511 2789.65591522763998 164181.993166049 0.89022536803114105108 29.094144684975599802 193.96096456650400341 749.9662067612860028
    872000   0.5            296.27363      654.73129      2789.6559      164181.99      0.89022537     749.96621    
876000 291.631913774925 -400.158180229824 2789.9137932047101458 164181.993166049 0.89022536803114105108 29.094144684975599802 193.96096456650400341 752.63478595230901647
    876000   0.5            291.63191     -400.15818      2789.9138      164181.99      0.89022537     752.63479    
880000 326.4108 265.3663
880000 298.892246951563 -367.841508949347 2789.6886034013400604 164181.993166049 0.89022536803114105108 29.094144684975599802 193.96096456650400341 756.2256956810920201
    880000   0.5            298.89225     -367.84151      2789.6886      164181.99      0.89022537     756.2257     
884000 293.819271755717 96.0635211041661 2789.7769566758797737 164181.993166049 0.89022536803114105108 29.094144684975599802 193.96096456650400341 760.13134942436295205
    884000   0.5            293.81927      96.063521      2789.777       164181.99      0.89022537     760.13135    
888000 296.102426297342 435.309281897234 2789.7834015518101296 164181.993166049 0.89022536803114105108 29.094144684975599802 193.96096456650400341 762.85833196087196484
    888000   0.5            296.10243      435.30928      2789.7834      164181.99      0.89022537     762.85833    
890000 318.8587 256.2719
892000 297.457538974585 281.182301774028 2789.566974447479879 164181.993166049 0.89022536803114105108 29.094144684975599802 193.96096456650400341 765.24573685772998033
    892000   0.5            297.45754      281.1823       2789.567       164181.99      0.89022537     765.24574    
896000 296.22928590818 -48.8802318739055 2789.6637784761201146 164181.993166049 0.89022536803114105108 29.094144684975599802 193.96096456650400341 768.005884856647981
    896000   0.5            296.22929     -48.880232      2789.6638      164181.99      0.89022537     768.00588    
900000 330.2729 261.2345
900000 297.755137196794 487.031019978482 2789.5946331480799927 164181.993166049 0.89022536803114105108 29.094144684975599802 193.96096456650400341 770.59102739869695142
    900000   0.5            297.75514      487.03102      2789.5946      164181.99      0.89022537     770.59103    
904000 296.819799894097 241.524916741327 2789.5518777551801577 164181.993166049 0.89022536803114105108 29.094144684975599802 193.96096456650400341 772.82076913693697406
    904000   0.5            296.8198       241.52492      2789.5519      164181.99      0.89022537     772.82077    
908000 295.363717010275 -168.027833536125 2789.3190920987999561 164181.993166049 0.89022536803114105108 29.094144684975599802 193.96096456650400341 775.64558651782999732
    908000   0.5            295.36372     -168.02783      2789.3191      164181.99      0.89022537     775.64559    
910000 334.8122 266.3703
912000 296.826919455923 315.026859711454 2789.5147974423898631 164181.993166049 0.89022536803114105108 29.094144684975599802 193.96096456650400341 779.79544495142999949
    912000   0.5            296.82692      315.02686      2789.5148      164181.99      0.89022537     779.79544    
916000 298.011415181629 234.789249122601 2789.4557263677102128 164181.993166049 0.89022536803114105108 29.094144684975599802 193.96096456650400341 783.19332222790103515
    916000   0.5            298.01142      234.78925      2789.4557      164181.99      0.89022537     783.19332    
920000 343.0106 263.4329
920000 291.770481833787 251.252877233554 2789.5757518549098677 164181.993166049 0.89022536803114105108 29.094144684975599802 193.96096456650400341 785.99781723918601983
    920000   0.5            291.77048      251.25288      2789.5758      164181.99      0.89022537     785.99782    
924000 299.937701504034 290.989295900197 2789.5071396062198801 164181.993166049 0.89022536803114105108 29.094144684975599802 193.96096456650400341 789.17773219208800128
    924000   0.5            299.9377       290.9893       2789.5071      164181.99      0.89022537     789.17773    
928000 295.456435262899 224.107389195735 2789.5223835330198199 164181.993166049 0.89022536803114105108 29.094144684975599802 193.96096456650400341 792.66314511754399064
    928000   0.5            295.45644      224.10739      2789.5224      164181.99      0.89022537     792.66315    
930000 336.6972 266.1842
932000 295.731332384781 327.498104224415 2789.4996158958902015 164181.993166049 0.89022536803114105108 29.094144684975599802 193.96096456650400341 795.06731145055096022
    932000   0.5            295.73133      327.4981       2789.4996      164181.99      0.89022537     795.06731    
936000 296.222426568081 -404.081345364947 2789.403930909059909 164181.993166049 0.89022536803114105108 29.094144684975599802 193.96096456650400341 798.61217597232098342
    936000   0.5            296.22243     -404.08135      2789.4039      164181.99      0.89022537     798.61218    
940000 335.6630 274.3514
940000 295.076744208727 228.268023570262 2789.7689649633698536 164181.993166049 0.89022536803114105108 29.094144684975599802 193.96096456650400341 801.77296585695296471
    940000   0.5            295.07674      228.26802      2789.769       164181.99      0.89022537     801.77297    
944000 296.464606927363 332.131762010644 2789.7366583384000478 164181.993166049 0.89022536803114105108 29.094144684975599802 193.96096456650400341 804.03171902023302664
    944000   0.5            296.46461      332.13176      2789.7367      164181.99      0.89022537     804.03172    
948000 292.685677437272 86.7987114444209 2789.9970969615701506 164181.993166049 0.89022536803114105108 29.094144684975599802 193.96096456650400341 808.09498392054103988
    948000   0.5            292.68568      86.798711      2789.9971      164181.99      0.89022537     808.09498    
950000 318.7724 264.3142
952000 292.947025459398 29.8191642534325 2789.8339408306501355 164181.993166049 0.89022536803114105108 29.094144684975599802 193.96096456650400341 812.66152082549194802
    952000   0.5            292.94703      29.819164      2789.8339      164181.99      0.89022537     812.66152    
956000 294.173791950647 -226.582767603676 2789.8342000936800105 164181.993166049 0.89022536803114105108 29.094144684975599802 193.96096456650400341 815.26988616205301241
    956000   0.5            294.17379     -226.58277      2789.8342      164181.99      0.89022537     815.26989    
960000 333.2644 261.7208
960000 295.68444826108 -124.994656129255 2789.6801762638601758 164181.993166049 0.89022536803114105108 29.094144684975599802 193.96096456650400341 818.83951552931296192
    960000   0.5            295.68445     -124.99466      2789.6802      164181.99      0.89022537     818.83952    
964000 297.981484809963 -60.0458593996936 2789.7267557157902047 164181.993166049 0.89022536803114105108 29.094144684975599802 193.96096456650400341 823.28995125889298379
    964000   0.5            297.98148     -60.045859      2789.7268      164181.99      0.89022537     823.28995    
968000 295.658304804229 -421.075871352041 2789.6129135120700084 164181.993166049 0.89022536803114105108 29.094144684975599802 193.96096456650400341 826.60680615650403524
    968000   0.5            295.6583      -421.07587      2789.6129      164181.99      0.89022537     826.60681    
970000 309.4333 262.5735
972000 294.756420590109 -248.243622574363 2789.6469199414100331 164181.993166049 0.89022536803114105108 29.094144684975599802 193.96096456650400341 830.21287118629800261
    972000   0.5            294.75642     -248.24362      2789.6469      164181.99      0.89022537     830.21287    
976000 295.945800337989 358.165762956377 2789.8437939244599875 164181.993166049 0.89022536803114105108 29.094144684975599802 193.96096456650400341 834.18339499976798379
    976000   0.5            295.9458       358.16576      2789.8438      164181.99      0.89022537     834.18339    
980000 335.6242 262.8487
980000 296.99866472319 -14.2816851000278 2789.7157060090398772 164181.993166049 0.89022536803114105108 29.094144684975599802 193.96096456650400341 837.50302820061995135
    980000   0.5            296.99866     -14.281685      2789.7157      164181.99      0.89022537     837.50303    
984000 296.287071230293 45.5873022154508 2789.3419918491199496 164181.993166049 0.89022536803114105108 29.094144684975599802 193.96096456650400341 840.03954713019300016
    984000   0.5            296.28707      45.587302      2789.342       164181.99      0.89022537     840.03955    
988000 294.952752340998 389.122107301108 2789.9254160354198575 164181.993166049 0.89022536803114105108 29.094144684975599802 193.96096456650400341 845.06444267192000552
    988000   0.5            294.95275      389.12211      2789.9254      164181.99      0.89022537     845.06444    
990000 341.5487 256.4594
[...]
  19752000   0.5            293.37449     -90.006247      2802.7761      164181.99      0.89022537     15912.317    
19756000 297.102733926776 259.969352981334 2802.3192083512299178 164181.993166049 0.89022536803114105108 29.094144684975599802 193.96096456650400341 15915.792934833600157
  19756000   0.5            297.10273      259.96935      2802.3192      164181.99      0.89022537     15915.793    
19760000 350.5625 271.1741
19760000 296.317777685685 -130.527171296392 2802.4773009440300484 164181.993166049 0.89022536803114105108 29.094144684975599802 193.96096456650400341 15918.100132366800608
  19760000   0.5            296.31778     -130.52717      2802.4773      164181.99      0.89022537     15918.1      
19764000 295.623493362036 -78.416554310263 2802.4616165247898607 164181.993166049 0.89022536803114105108 29.094144684975599802 193.96096456650400341 15921.699118185599218
  19764000   0.5            295.62349     -78.416554      2802.4616      164181.99      0.89022537     15921.699    
19768000 294.04306281349 683.901760836453 2802.5365692326199678 164181.993166049 0.89022536803114105108 29.094144684975599802 193.96096456650400341 15925.200944859800074
  19768000   0.5            294.04306      683.90176      2802.5366      164181.99      0.89022537     15925.201    
19770000 336.4745 269.0380
19772000 295.086694293213 992.625880589284 2802.0680550391398356 164181.993166049 0.89022536803114105108 29.094144684975599802 193.96096456650400341 15927.764563854399967
  19772000   0.5            295.08669      992.62588      2802.0681      164181.99      0.89022537     15927.765    
19776000 296.756224615115 489.949336198519 2802.4440192673300771 164181.993166049 0.89022536803114105108 29.094144684975599802 193.96096456650400341 15930.309603163699649
  19776000   0.5            296.75622      489.94934      2802.444       164181.99      0.89022537     15930.31     
19780000 332.7969 261.8618
19780000 292.254257350417 -126.435610317186 2803.042222206579936 164181.993166049 0.89022536803114105108 29.094144684975599802 193.96096456650400341 15933.165138387099432
  19780000   0.5            292.25426     -126.43561      2803.0422      164181.99      0.89022537     15933.165    
19784000 294.580319103266 -69.4284891453609 2802.7285397448599724 164181.993166049 0.89022536803114105108 29.094144684975599802 193.96096456650400341 15936.588776843600499
  19784000   0.5            294.58032     -69.428489      2802.7285      164181.99      0.89022537     15936.589    
19788000 293.615223813278 467.194110889822 2802.7638440385298964 164181.993166049 0.89022536803114105108 29.094144684975599802 193.96096456650400341 15939.52182852740043
  19788000   0.5            293.61522      467.19411      2802.7638      164181.99      0.89022537     15939.522    
19790000 322.0615 258.1025
19792000 296.192445681069 31.4001937416656 2802.5577469324198319 164181.993166049 0.89022536803114105108 29.094144684975599802 193.96096456650400341 15942.710858840300716
  19792000   0.5            296.19245      31.400194      2802.5577      164181.99      0.89022537     15942.711    
19796000 294.709080313483 -541.555220554534 2802.6075034799400783 164181.993166049 0.89022536803114105108 29.094144684975599802 193.96096456650400341 15945.238712536500316
  19796000   0.5            294.70908     -541.55522      2802.6075      164181.99      0.89022537     15945.239    
19800000 319.2414 263.0297
19800000 295.649683133368 -361.124612661492 2802.9700531642301939 164181.993166049 0.89022536803114105108 29.094144684975599802 193.96096456650400341 15948.798140378899916
  19800000   0.5            295.64968     -361.12461      2802.9701      164181.99      0.89022537     15948.798    
19804000 293.943939393772 -169.753979015252 2802.7819944440398103 164181.993166049 0.89022536803114105108 29.094144684975599802 193.96096456650400341 15951.5504150837005
  19804000   0.5            293.94394     -169.75398      2802.782       164181.99      0.89022537     15951.55     
19808000 294.139221367652 474.63299153696 2803.1781781079998837 164181.993166049 0.89022536803114105108 29.094144684975599802 193.96096456650400341 15953.875237902699155
  19808000   0.5            294.13922      474.63299      2803.1782      164181.99      0.89022537     15953.875    
19810000 318.1837 245.2878
19812000 295.753839469601 168.406598945303 2802.8941208722799274 164181.993166049 0.89022536803114105108 29.094144684975599802 193.96096456650400341 15957.75974233819943
  19812000   0.5            295.75384      168.4066       2802.8941      164181.99      0.89022537     15957.76     
19816000 294.058367234549 279.904778574027 2802.9569767431098626 164181.993166049 0.89022536803114105108 29.094144684975599802 193.96096456650400341 15960.444183803700071
  19816000   0.5            294.05837      279.90478      2802.957       164181.99      0.89022537     15960.444    
19820000 318.2531 259.9079
19820000 295.875737112379 758.772441573967 2802.9883269578999716 164181.993166049 0.89022536803114105108 29.094144684975599802 193.96096456650400341 15964.157532746499783
  19820000   0.5            295.87574      758.77244      2802.9883      164181.99      0.89022537     15964.158    
19824000 292.461629691357 -163.49078030632 2803.1532267525899442 164181.993166049 0.89022536803114105108 29.094144684975599802 193.96096456650400341 15966.867083756700595
  19824000   0.5            292.46163     -163.49078      2803.1532      164181.99      0.89022537     15966.867    
19828000 291.837887150956 189.293894030544 2803.1475606978601718 164181.993166049 0.89022536803114105108 29.094144684975599802 193.96096456650400341 15970.543592307300059
  19828000   0.5            291.83789      189.29389      2803.1476      164181.99      0.89022537     15970.544    
19830000 344.1879 259.0129
19832000 295.993103511116 301.457066237081 2803.040628717799791 164181.993166049 0.89022536803114105108 29.094144684975599802 193.96096456650400341 15974.285971250199509
  19832000   0.5            295.9931       301.45707      2803.0406      164181.99      0.89022537     15974.286    
19836000 294.625085121723 59.1640847125022 2802.7710046476499883 164181.993166049 0.89022536803114105108 29.094144684975599802 193.96096456650400341 15978.262442413199096
  19836000   0.5            294.62509      59.164085      2802.771       164181.99      0.89022537     15978.262    
19840000 339.5880 267.2720
19840000 296.836147811663 65.8786893183752 2802.8006963904999793 164181.993166049 0.89022536803114105108 29.094144684975599802 193.96096456650400341 15981.884023034699567
  19840000   0.5            296.83615      65.878689      2802.8007      164181.99      0.89022537     15981.884    
19844000 295.598757051767 266.220121089429 2802.6790229300700048 164181.993166049 0.89022536803114105108 29.094144684975599802 193.96096456650400341 15985.366998345500178
  19844000   0.5            295.59876      266.22012      2802.679       164181.99      0.89022537     15985.367    
19848000 293.435426099059 -12.9475714549511 2803.0784973701202034 164181.993166049 0.89022536803114105108 29.094144684975599802 193.96096456650400341 15987.822895899400464
  19848000   0.5            293.43543     -12.947571      2803.0785      164181.99      0.89022537     15987.823    
19850000 345.2306 264.4188
19852000 295.694415247784 -71.9818880242173 2803.1910506801200427 164181.993166049 0.89022536803114105108 29.094144684975599802 193.96096456650400341 15991.925832033499319
  19852000   0.5            295.69442     -71.981888      2803.1911      164181.99      0.89022537     15991.926    
19856000 293.105696713868 -79.9074541553927 2803.1338952333198904 164181.993166049 0.89022536803114105108 29.094144684975599802 193.96096456650400341 15995.217407161699157
  19856000   0.5            293.1057      -79.907454      2803.1339      164181.99      0.89022537     15995.217    
19860000 345.2036 259.1456
19860000 291.397457179655 453.497681098473 2803.2662574399000732 164181.993166049 0.89022536803114105108 29.094144684975599802 193.96096456650400341 15999.522145051600091
  19860000   0.5            291.39746      453.49768      2803.2663      164181.99      0.89022537     15999.522    
19864000 295.377694054426 87.1046876059887 2803.2015108449800209 164181.993166049 0.89022536803114105108 29.094144684975599802 193.96096456650400341 16002.346539633199427
  19864000   0.5            295.37769      87.104688      2803.2015      164181.99      0.89022537     16002.347    
19868000 296.025657476726 916.785427972529 2803.2549792839099609 164181.993166049 0.89022536803114105108 29.094144684975599802 193.96096456650400341 16005.212389932699807
  19868000   0.5            296.02566      916.78543      2803.255       164181.99      0.89022537     16005.212    
19870000 347.0178 269.4949
19872000 293.848279407835 -82.7281453658648 2803.2111402867399192 164181.993166049 0.89022536803114105108 29.094144684975599802 193.96096456650400341 16007.907786799700261
  19872000   0.5            293.84828     -82.728145      2803.2111      164181.99      0.89022537     16007.908    
19876000 292.745895109777 42.0497494952766 2803.3593156322399409 164181.993166049 0.89022536803114105108 29.094144684975599802 193.96096456650400341 16010.907132863600054
  19876000   0.5            292.7459       42.049749      2803.3593      164181.99      0.89022537     16010.907    
19880000 335.5453 258.9593
19880000 295.197939578096 -338.461674089141 2802.9976029879499038 164181.993166049 0.89022536803114105108 29.094144684975599802 193.96096456650400341 16014.52241401649917
  19880000   0.5            295.19794     -338.46167      2802.9976      164181.99      0.89022537     16014.522    
19884000 295.793192010202 -307.266719321246 2802.5848053364297812 164181.993166049 0.89022536803114105108 29.094144684975599802 193.96096456650400341 16018.764945576700484
  19884000   0.5            295.79319     -307.26672      2802.5848      164181.99      0.89022537     16018.765    
19888000 296.044245763146 111.117068725629 2802.5846385930799443 164181.993166049 0.89022536803114105108 29.094144684975599802 193.96096456650400341 16022.644142360100886
  19888000   0.5            296.04425      111.11707      2802.5846      164181.99      0.89022537     16022.644    
19890000 355.5390 266.1189
19892000 294.386766781588 621.788917867671 2802.6160653723500218 164181.993166049 0.89022536803114105108 29.094144684975599802 193.96096456650400341 16026.580059100100698
  19892000   0.5            294.38677      621.78892      2802.6161      164181.99      0.89022537     16026.58     
19896000 295.230173199449 -196.598620473659 2802.6066729045101056 164181.993166049 0.89022536803114105108 29.094144684975599802 193.96096456650400341 16032.284635658299521
  19896000   0.5            295.23017     -196.59862      2802.6067      164181.99      0.89022537     16032.285    
19900000 337.4228 279.6848
19900000 296.627144538806 -573.637529949359 2802.7134247672702259 164181.993166049 0.89022536803114105108 29.094144684975599802 193.96096456650400341 16035.880920953199166
  19900000   0.5            296.62714     -573.63753      2802.7134      164181.99      0.89022537     16035.881    
19904000 293.874030524953 -291.865447068267 2802.9552367236501595 164181.993166049 0.89022536803114105108 29.094144684975599802 193.96096456650400341 16039.204452239500824
  19904000   0.5            293.87403     -291.86545      2802.9552      164181.99      0.89022537     16039.204    
19908000 293.630759813091 -347.228007681437 2802.864616907870186 164181.993166049 0.89022536803114105108 29.094144684975599802 193.96096456650400341 16042.106608369900641
  19908000   0.5            293.63076     -347.22801      2802.8646      164181.99      0.89022537     16042.107    
19910000 352.9190 253.0459
19912000 295.141600508917 -125.266195585548 2803.1428981950298294 164181.993166049 0.89022536803114105108 29.094144684975599802 193.96096456650400341 16046.056009050700595
  19912000   0.5            295.1416      -125.2662       2803.1429      164181.99      0.89022537     16046.056    
19916000 295.911498863545 271.544088517122 2803.1823704024300241 164181.993166049 0.89022536803114105108 29.094144684975599802 193.96096456650400341 16049.247985532600069
  19916000   0.5            295.9115       271.54409      2803.1824      164181.99      0.89022537     16049.248    
19920000 363.0239 258.9044
19920000 294.09897452921 -352.522698023002 2803.358679359029793 164181.993166049 0.89022536803114105108 29.094144684975599802 193.96096456650400341 16051.724844291600675
  19920000   0.5            294.09897     -352.5227       2803.3587      164181.99      0.89022537     16051.725    
19924000 294.356134408687 480.608018727554 2803.1866780078698866 164181.993166049 0.89022536803114105108 29.094144684975599802 193.96096456650400341 16054.497731667699554
  19924000   0.5            294.35613      480.60802      2803.1867      164181.99      0.89022537     16054.498    
19928000 294.686052154444 659.140343649176 2803.214229327690191 164181.993166049 0.89022536803114105108 29.094144684975599802 193.96096456650400341 16057.807886960999895
  19928000   0.5            294.68605      659.14034      2803.2142      164181.99      0.89022537     16057.808    
19930000 341.8461 250.9157
19932000 296.690168605857 341.354956591619 2803.2653098239397877 164181.993166049 0.89022536803114105108 29.094144684975599802 193.96096456650400341 16060.840093998700468
  19932000   0.5            296.69017      341.35496      2803.2653      164181.99      0.89022537     16060.84     
19936000 296.729739284642 264.388726864875 2803.1352090302698343 164181.993166049 0.89022536803114105108 29.094144684975599802 193.96096456650400341 16063.097383728400018
  19936000   0.5            296.72974      264.38873      2803.1352      164181.99      0.89022537     16063.097    
19940000 336.8803 258.5806
19940000 292.715946579258 759.140947051283 2803.2106555822401788 164181.993166049 0.89022536803114105108 29.094144684975599802 193.96096456650400341 16065.822150424999563
  19940000   0.5            292.71595      759.14095      2803.2107      164181.99      0.89022537     16065.822    
19944000 295.807297709184 385.041153212779 2803.0133701696699973 164181.993166049 0.89022536803114105108 29.094144684975599802 193.96096456650400341 16068.882281064099516
  19944000   0.5            295.8073       385.04115      2803.0134      164181.99      0.89022537     16068.882    
19948000 297.438537752375 113.481399924444 2803.0640265368101609 164181.993166049 0.89022536803114105108 29.094144684975599802 193.96096456650400341 16071.651969795799232
  19948000   0.5            297.43854      113.4814       2803.064       164181.99      0.89022537     16071.652    
19950000 326.1500 263.7277
19952000 298.286598973345 134.811399661264 2802.7754519391501162 164181.993166049 0.89022536803114105108 29.094144684975599802 193.96096456650400341 16075.440898833900064
  19952000   0.5            298.2866       134.8114       2802.7755      164181.99      0.89022537     16075.441    
19956000 294.83622981063 306.672048213681 2802.736928879649895 164181.993166049 0.89022536803114105108 29.094144684975599802 193.96096456650400341 16079.132791195999744
  19956000   0.5            294.83623      306.67205      2802.7369      164181.99      0.89022537     16079.133    
19960000 319.0862 271.4716
19960000 295.43424222455 560.883103765146 2802.5761287066898149 164181.993166049 0.89022536803114105108 29.094144684975599802 193.96096456650400341 16082.221497760499915
  19960000   0.5            295.43424      560.8831       2802.5761      164181.99      0.89022537     16082.221    
19964000 295.162759514642 922.828269383688 2802.5313028981099706 164181.993166049 0.89022536803114105108 29.094144684975599802 193.96096456650400341 16085.370458191400758
  19964000   0.5            295.16276      922.82827      2802.5313      164181.99      0.89022537     16085.37     
19968000 293.471925073552 310.331216406429 2802.9671743412900469 164181.993166049 0.89022536803114105108 29.094144684975599802 193.96096456650400341 16090.051080789300613
  19968000   0.5            293.47193      310.33122      2802.9672      164181.99      0.89022537     16090.051    
19970000 308.2389 255.0946
19972000 294.735458743865 -151.849296683859 2803.0374098930301443 164181.993166049 0.89022536803114105108 29.094144684975599802 193.96096456650400341 16093.306760555100482
  19972000   0.5            294.73546     -151.8493       2803.0374      164181.99      0.89022537     16093.307    
19976000 296.91037442923 435.56091576147 2803.1763038401199992 164181.993166049 0.89022536803114105108 29.094144684975599802 193.96096456650400341 16096.828560356199887
  19976000   0.5            296.91037      435.56092      2803.1763      164181.99      0.89022537     16096.829    
19980000 350.9472 262.9814
19980000 296.733848831663 -75.6325700469074 2802.9662974043299073 164181.993166049 0.89022536803114105108 29.094144684975599802 193.96096456650400341 16099.494713400299588
  19980000   0.5            296.73385     -75.63257       2802.9663      164181.99      0.89022537     16099.495    
19984000 295.841573092943 530.841371741295 2803.3024908357401728 164181.993166049 0.89022536803114105108 29.094144684975599802 193.96096456650400341 16102.064685503199144
  19984000   0.5            295.84157      530.84137      2803.3025      164181.99      0.89022537     16102.065    
19988000 290.486865869382 -442.337340557369 2803.3506902382600856 164181.993166049 0.89022536803114105108 29.094144684975599802 193.96096456650400341 16105.289244055600648
  19988000   0.5            290.48687     -442.33734      2803.3507      164181.99      0.89022537     16105.289    
19990000 339.2636 258.2128
19992000 294.559524671377 138.247748766854 2803.2066213340099239 164181.993166049 0.89022536803114105108 29.094144684975599802 193.96096456650400341 16107.946386485500625
  19992000   0.5            294.55952      138.24775      2803.2066      164181.99      0.89022537     16107.946    
19996000 294.082649891003 -957.506524986475 2803.1939288106800632 164181.993166049 0.89022536803114105108 29.094144684975599802 193.96096456650400341 16111.373225380200893
  19996000   0.5            294.08265     -957.50652      2803.1939      164181.99      0.89022537     16111.373    
20000000 336.1527 266.7539
20000000 296.920816525806 25.679601744025 2803.3315563073301746 164181.993166049 0.89022536803114105108 29.094144684975599802 193.96096456650400341 16114.600074316700557
  20000000   0.5            296.92082      25.679602      2803.3316      164181.99      0.89022537     16114.6      
Loop time of 56186.2 on 36 procs for 20000000 steps with 6000 atoms

Performance: 15.377 ns/day, 1.561 hours/ns, 355.959 timesteps/s, 2.136 Matom-step/s
99.3% CPU use with 36 MPI tasks x no OpenMP threads

MPI task timing breakdown:
Section |  min time  |  avg time  |  max time  |%varavg| %total
---------------------------------------------------------------
Pair    | 9197.8     | 12842      | 16627      |1835.4 | 22.86
Bond    | 94.21      | 106.39     | 121.43     |  67.4 |  0.19
Kspace  | 34453      | 38564      | 42344      |1172.9 | 68.64
Neigh   | 162.3      | 164.07     | 166.73     |   8.4 |  0.29
Comm    | 3504.6     | 3895.1     | 4532.2     | 420.1 |  6.93
Output  | 0.18405    | 0.47298    | 0.48584    |   7.1 |  0.00
Modify  | 56.112     | 61.407     | 70.522     |  49.9 |  0.11
Other   |            | 552.6      |            |       |  0.98

Nlocal:        166.667 ave         186 max         133 min
Histogram: 3 0 3 2 1 4 5 4 10 4
Nghost:        3567.89 ave        3769 max        3163 min
Histogram: 1 4 2 1 2 3 3 2 6 12
Neighs:        43192.3 ave       52301 max       28729 min
Histogram: 1 3 0 3 4 3 6 8 4 4

Total # of neighbors = 1554923
Ave neighs/atom = 259.15383
Ave special neighs/atom = 2
Neighbor list builds = 95921
Dangerous builds = 0

quit
