LAMMPS (2 Aug 2023)
WARNING: Using I/O redirection is unreliable with parallel runs. Better to use the -in switch to read input files. (../lammps.cpp:537)
Reading data file ...
  orthogonal box = (0 0 0) to (54.965023 54.965023 54.965023)
  3 by 3 by 4 MPI processor grid
  reading atoms ...
  6000 atoms
  scanning bonds ...
  1 = max bonds/atom
  scanning angles ...
  1 = max angles/atom
  reading bonds ...
  4000 bonds
  reading angles ...
  2000 angles
Finding 1-2 1-3 1-4 neighbors ...
  special bond factors lj:    0        0        0       
  special bond factors coul:  0        0        0       
     2 = max # of 1-2 neighbors
     1 = max # of 1-3 neighbors
     1 = max # of 1-4 neighbors
     2 = max # of special neighbors
  special bonds CPU = 0.002 seconds
  read_data CPU = 0.108 seconds
Setting atom values ...
  4000 settings made for charge
Setting atom values ...
  2000 settings made for charge
4000 atoms in group oxy
2000 atoms in group carb
PPPM initialization ...
  using 12-bit tables for long-range coulomb (../kspace.cpp:342)
  G vector (1/distance) = 0.26765441
  grid = 50 50 50
  stencil order = 5
  estimated absolute RMS force accuracy = 0.00041666652
  estimated relative force accuracy = 1.2547789e-06
  using double precision KISS FFT
  3d grid and FFT values/proc = 12500 5000
Generated 1 of 1 mixed pair_coeff terms from arithmetic mixing rule
Neighbor list info ...
  update: every = 1 steps, delay = 0 steps, check = yes
  max neighbors/atom: 2000, page size: 100000
  master list distance cutoff = 15
  ghost atom cutoff = 15
  binsize = 7.5, bins = 8 8 8
  1 neighbor lists, perpetual/occasional/extra = 1 0 0
  (1) pair lj/cut/coul/long, perpetual
      attributes: half, newton on
      pair build: half/bin/newton
      stencil: half/bin/3d
      bin: standard
Setting up cg style minimization ...
  Unit style    : real
  Current step  : 0
Per MPI rank memory allocation (min/avg/max) = 9.006 | 9.092 | 9.246 Mbytes
   Step          Temp          E_pair         E_mol          TotEng         Press     
         0   0             -1994.5914      6.626504e-05  -1994.5914      5536.5093    
      1599   0             -9452.4484      18.723026     -9433.7254     -486.69609    
Loop time of 16.1706 on 36 procs for 1599 steps with 6000 atoms

99.2% CPU use with 36 MPI tasks x no OpenMP threads

Minimization stats:
  Stopping criterion = energy tolerance
  Energy initial, next-to-last, final = 
     -1994.59136846609  -9433.71655615377  -9433.72535612576
  Force two-norm initial, final = 460.00158 6.5966423
  Force max component initial, final = 18.184313 0.92015529
  Final line search alpha, max atom move = 0.034210035 0.031478544
  Iterations, force evaluations = 1599 3141

MPI task timing breakdown:
Section |  min time  |  avg time  |  max time  |%varavg| %total
---------------------------------------------------------------
Pair    | 1.0541     | 3.1334     | 5.9959     |  60.4 | 19.38
Bond    | 0.013515   | 0.020142   | 0.026758   |   2.4 |  0.12
Kspace  | 8.7538     | 11.771     | 13.893     |  32.6 | 72.79
Neigh   | 0.046413   | 0.048698   | 0.050184   |   0.6 |  0.30
Comm    | 0.87686    | 0.99682    | 1.2056     |   7.9 |  6.16
Output  | 0          | 0          | 0          |   0.0 |  0.00
Modify  | 0          | 0          | 0          |   0.0 |  0.00
Other   |            | 0.201      |            |       |  1.24

Nlocal:        166.667 ave         269 max          89 min
Histogram: 2 4 4 7 7 5 3 1 1 2
Nghost:         3689.5 ave        4496 max        3219 min
Histogram: 6 8 2 3 6 6 1 1 1 2
Neighs:        48734.1 ave      106272 max       11662 min
Histogram: 2 4 9 5 8 3 2 1 0 2

Total # of neighbors = 1754428
Ave neighs/atom = 292.40467
Ave special neighs/atom = 2
Neighbor list builds = 21
Dangerous builds = 0
PPPM initialization ...
  using 12-bit tables for long-range coulomb (../kspace.cpp:342)
  G vector (1/distance) = 0.26765441
  grid = 50 50 50
  stencil order = 5
  estimated absolute RMS force accuracy = 0.00041666652
  estimated relative force accuracy = 1.2547789e-06
  using double precision KISS FFT
  3d grid and FFT values/proc = 12500 5000
Generated 1 of 1 mixed pair_coeff terms from arithmetic mixing rule
Setting up Verlet run ...
  Unit style    : real
  Current step  : 1599
  Time step     : 0.1
Per MPI rank memory allocation (min/avg/max) = 8.033 | 8.157 | 8.932 Mbytes
   Step         PotEng         KinEng         TotEng         Press           Temp       c_theta_ave    c_length_ave    v_Density   
      1599  -9433.7254      5364.5638     -4069.1615      990.05747      300            179.41442      1.160839       0.88016936   
      2000  -6591.9182      4257.4795     -2334.4387      1344.8202      238.08904      174.86024      1.1613748      0.86542485   
      3000  -4618.9651      5307.4007      688.43556      734.04788      296.80329      174.68426      1.1604941      0.73384295   
      4000  -3999.3637      5661.5272      1662.1635      131.23187      316.60694      175.50887      1.1608752      0.69053925   
      5000  -4142.4167      6291.4214      2149.0047      676.68957      351.83222      175.50825      1.1605244      0.66529181   
      6000  -3210.1025      5563.0017      2352.8992      210.63566      311.09715      175.32228      1.1606675      0.64942733   
      7000  -2297.4168      4746.5824      2449.1656     -33.776818      265.44091      175.06858      1.1606671      0.64507112   
      8000  -2103.4255      4744.1345      2640.709       46.00694       265.30402      174.98651      1.160503       0.63367909   
      9000  -2107.3676      4903.3841      2796.0165     -63.03952       274.20966      175.11239      1.160723       0.63178181   
     10000  -2498.4547      5453.8918      2955.4371      203.95794      304.99545      175.06948      1.1606054      0.62566243   
     11000  -3018.1976      5973.2053      2955.0077      480.88902      334.03677      175.04555      1.160537       0.62966089   
     12000  -2923.3355      5876.6316      2953.2962      351.2003       328.63613      175.04421      1.1606297      0.63017399   
     13000  -2585.3587      5593.2722      3007.9135      282.6198       312.78995      175.03834      1.160615       0.63464276   
     14000  -2151.4145      5120.6424      2969.2279      121.17791      286.3593       175.01713      1.1606165      0.63844519   
     15000  -1711.5273      4762.5281      3051.0007     -44.980709      266.33263      174.96991      1.160671       0.63916172   
     16000  -1831.6094      4904.0404      3072.431      -103.65598      274.24636      175.00634      1.1606349      0.63470607   
     17000  -2238.5304      5381.0955      3142.565       148.18804      300.92449      174.99197      1.1606209      0.63871782   
     18000  -2568.6293      5743.6315      3175.0022      534.39304      321.19842      174.96485      1.1603985      0.64190381   
     19000  -2653.5012      5860.9263      3207.4251      40.586282      327.75785      174.92203      1.1609324      0.64174146   
     20000  -2437.2548      5636.7262      3199.4714      428.6025       315.22001      174.94435      1.1605745      0.65391731   
     21000  -2050.2876      5168.6875      3118.3999      435.8843       289.0461       174.94166      1.1602446      0.65454931   
     22000  -1810.9476      4921.572       3110.6244     -304.39524      275.22677      174.93718      1.1609249      0.66035395   
     23000  -1724.7098      4913.9566      3189.2467      81.92861       274.8009       174.90738      1.1605018      0.65771721   
     24000  -1979.943       5218.193       3238.25        202.83032      291.81457      174.89178      1.1605475      0.66087878   
     25000  -2403.2695      5667.6893      3264.4199      115.28658      316.95155      174.92308      1.1607485      0.66041848   
     26000  -2528.8487      5835.6263      3306.7776      541.96268      326.343        174.9521       1.1604561      0.66562      
     27000  -2387.4395      5712.9954      3325.5559      391.77722      319.48517      174.9045       1.1604977      0.66434771   
     28000  -2096.1674      5325.5214      3229.354      -196.2406       297.81665      174.94534      1.161009       0.67925712   
     29000  -1778.9627      4958.0755      3179.1127      403.16881      277.26814      174.92763      1.1602095      0.68047571   
     30000  -1708.3717      4941.9141      3233.5424     -83.27178       276.36436      174.90329      1.1606929      0.68922351   
     31000  -1992.1361      5148.1578      3156.0216     -251.1351       287.89802      174.87512      1.1609062      0.69532057   
     32000  -2264.238       5505.845       3241.607       722.21147      307.9008       174.85693      1.1601653      0.69455764   
     33000  -2461.0783      5723.1079      3262.0296      293.7522       320.05069      174.84492      1.160678       0.69457555   
     34000  -2376.947       5668.9199      3291.9728      224.52774      317.02036      174.86414      1.160693       0.69722588   
     35000  -2111.5462      5406.6452      3295.099       332.65924      302.35329      174.89516      1.1604828      0.70339848   
     36000  -1875.0361      5138.2142      3263.1781     -3.6789171      287.34196      174.89127      1.1607132      0.71197855   
     37000  -1693.8121      4956.0208      3262.2087     -44.212345      277.15324      174.85815      1.1606151      0.70863002   
     38000  -1952.9408      4999.8631      3046.9224      221.53386      279.60501      174.97962      1.1604275      0.71952872   
     39000  -2353.991       5477.4857      3123.4948      64.087518      306.31488      174.96046      1.160854       0.73827834   
     40000  -2577.6914      5786.9889      3209.2975      336.95085      323.62308      175.03633      1.160598       0.73883969   
     41000  -2662.2072      5739.6932      3077.486       556.85889      320.97819      175.06922      1.1603714      0.74487034   
     42000  -2412.2215      5520.4838      3108.2623     -255.27385      308.71944      175.03046      1.1610701      0.75595725   
     43000  -2164.0711      5116.3639      2952.2928      316.53486      286.12003      175.08299      1.1604427      0.76440157   
     44000  -2016.338       4997.189       2980.851       167.72006      279.45547      175.04828      1.1604318      0.76197302   
     45000  -2063.7823      5142.7346      3078.9523     -313.79134      287.59475      174.99268      1.1609621      0.76712035   
     46000  -2257.1626      5430.9421      3173.7795      396.88284      303.71204      174.98771      1.1604384      0.76609718   
     47000  -2485.891       5581.2663      3095.3752      354.94583      312.11855      174.95954      1.1605672      0.77102202   
     48000  -2553.3734      5595.9663      3042.5929      158.02418      312.94061      175.0276       1.1607659      0.77866415   
     49000  -2342.4295      5516.6243      3174.1949      598.20968      308.50361      174.96079      1.1602788      0.7777561    
     50000  -2108.1304      5280.4994      3172.369      -59.427791      295.29891      174.98366      1.1607902      0.78580232   
     51000  -1917.5223      5070.7979      3153.2756     -460.07758      283.57186      174.94177      1.1610249      0.7892155    
     52000  -2018.3114      5194.5433      3176.2319      648.33996      290.49202      174.93496      1.1600937      0.79471807   
     53000  -2205.9179      5353.1911      3147.2731     -11.227895      299.364        174.93368      1.1607206      0.79722763   
     54000  -2336.147       5568.3196      3232.1727      228.20182      311.39454      174.83543      1.1606704      0.8018067    
     55000  -2502.2336      5713.0552      3210.8216      686.75348      319.48852      174.86938      1.1602789      0.8010122    
     56000  -2494.5497      5541.0034      3046.4537     -12.996995      309.86695      174.93053      1.1608439      0.81021084   
     57000  -2185.7669      5256.9883      3071.2214      55.783999      293.9841       174.91383      1.1606514      0.80950314   
     58000  -1959.2877      5034.2671      3074.9794      718.34341      281.52897      174.93731      1.1600799      0.80970055   
     59000  -2009.4217      5025.1949      3015.7732     -529.42044      281.02163      174.92499      1.1610662      0.81394773   
     60000  -2074.781       5392.0155      3317.2345      203.516        301.53516      174.86121      1.1605425      0.81399274   
     61000  -2293.0921      5540.1121      3247.02        496.41946      309.8171       174.94596      1.1603999      0.80793222   
     62000  -2447.6205      5637.6253      3190.0048     -35.575764      315.27029      174.9069       1.1608739      0.81380737   
     63000  -2434.2196      5593.3793      3159.1597      576.86197      312.79594      174.95989      1.1604048      0.82186226   
     64000  -2307.1941      5417.3159      3110.1218      570.44654      302.95003      175.02327      1.1603701      0.82901875   
     65000  -2029.831       5266.6625      3236.8315     -795.33661      294.52511      174.89258      1.1612583      0.82505528   
     66000  -2028.7988      5111.3383      3082.5394      457.07486      285.83898      174.92237      1.1602601      0.82851746   
     67000  -2123.9882      5215.1406      3091.1524      173.6784       291.64387      174.92586      1.1605583      0.82576053   
     68000  -2358.5591      5467.2345      3108.6754     -141.50464      305.7416       174.8882       1.1609047      0.82816575   
     69000  -2565.472       5621.5225      3056.0505      713.8047       314.36978      174.99032      1.1602737      0.83561732   
     70000  -2441.5834      5588.9076      3147.3242      197.27923      312.54587      174.95667      1.1606722      0.83063932   
     71000  -2213.7871      5401.8148      3188.0276     -97.835502      302.08317      174.9628       1.1608243      0.82364512   
     72000  -2112.9715      5272.7874      3159.8159      539.44347      294.86763      174.96296      1.1602526      0.83025076   
     73000  -2041.3422      5228.611       3187.2688     -354.55241      292.39717      174.98288      1.1609092      0.82692195   
     74000  -2043.677       5270.9239      3227.2469     -214.58212      294.76342      174.94354      1.1609256      0.82750346   
     75000  -2188.3594      5411.2097      3222.8503      1048.8932      302.60855      174.86152      1.1599201      0.82311567   
     76000  -2464.7774      5582.033       3117.2556     -108.06841      312.16142      174.89188      1.1608647      0.8274372    
     77000  -2543.5415      5678.5969      3135.0554      322.55205      317.56152      175.01066      1.1606091      0.83644286   
     78000  -2417.2489      5496.9632      3079.7143      502.40843      307.40411      175.02949      1.1603437      0.83283774   
     79000  -2186.6792      5302.1129      3115.4337     -304.22227      296.50758      174.9184       1.1610516      0.8410052    
     80000  -1998.1029      5121.1442      3123.0413      273.72037      286.38736      174.86507      1.1604089      0.8289772    
     81000  -2160.1918      5182.4207      3022.2289      325.07201      289.81409      174.91602      1.1604194      0.83891904   
     82000  -2311.9187      5351.8903      3039.9716     -146.86479      299.29126      174.92516      1.1608269      0.839566     
     83000  -2424.9936      5494.7275      3069.7339      378.22351      307.27908      174.94817      1.1604663      0.83626159   
     84000  -2485.4599      5647.1628      3161.7029      354.67913      315.80365      174.9731       1.1605562      0.83518239   
     85000  -2389.2948      5498.8496      3109.5548     -143.20562      307.5096       174.9777       1.1608791      0.82485894   
     86000  -2167.4527      5319.4629      3152.0102      633.3942       297.47784      174.99344      1.1602026      0.82078884   
     87000  -1982.0436      5235.3123      3253.2687     -13.652358      292.77193      174.9167       1.1606674      0.81985625   
     88000  -2041.072       5188.7843      3147.7123     -349.88575      290.16996      174.92267      1.1610123      0.83429388   
     89000  -2109.5075      5314.6346      3205.1271      436.2881       297.20783      174.92569      1.160271       0.82317269   
     90000  -2282.4576      5464.4372      3181.9796      46.5157        305.58517      174.89286      1.160706       0.82695455   
     91000  -2403.06        5567.8686      3164.8086      94.891806      311.36932      174.98362      1.1607354      0.83072018   
     92000  -2371.9361      5569.2117      3197.2756      843.36684      311.44443      174.91577      1.1601837      0.83411838   
     93000  -2193.6135      5338.6994      3145.0859     -313.33968      298.55359      174.89803      1.1609085      0.82490956   
     94000  -2068.6216      5278.242       3209.6204     -98.630693      295.17266      174.91766      1.1607888      0.83071068   
     95000  -2044.6296      5269.5962      3224.9666      510.51214      294.68917      174.94415      1.1602777      0.82063568   
     96000  -2041.4686      5269.637       3228.1684     -103.74474      294.69145      174.86481      1.1607017      0.80805068   
     97000  -2169.4235      5355.8805      3186.457       261.93268      299.5144       174.84804      1.1606362      0.82488593   
     98000  -2328.1153      5487.0559      3158.9406      477.70501      306.85007      174.87282      1.1604443      0.82596156   
     99000  -2269.6584      5558.1896      3288.5313      117.8149       310.82805      174.8285       1.1607157      0.82461939   
    100000  -2253.361       5510.0621      3256.701       231.91953      308.13663      174.98141      1.1605638      0.8268325    
    101000  -2203.883       5289.7073      3085.8243      305.65622      295.81383      175.00516      1.1604525      0.83191187   
    101599  -2226.7979      5366.1543      3139.3563      640.24276      300.08894      174.80639      1.1601802      0.82810746   
Loop time of 505.614 on 36 procs for 100000 steps with 6000 atoms

Performance: 1.709 ns/day, 14.045 hours/ns, 197.779 timesteps/s, 1.187 Matom-step/s
99.2% CPU use with 36 MPI tasks x no OpenMP threads

MPI task timing breakdown:
Section |  min time  |  avg time  |  max time  |%varavg| %total
---------------------------------------------------------------
Pair    | 35.119     | 56.596     | 98.093     | 192.6 | 11.19
Bond    | 0.57799    | 0.73018    | 0.95249    |   9.4 |  0.14
Kspace  | 302.54     | 348.63     | 372.16     |  85.6 | 68.95
Neigh   | 0.21989    | 0.23457    | 0.24406    |   1.4 |  0.05
Comm    | 31.707     | 35.779     | 42.764     |  40.8 |  7.08
Output  | 0.017284   | 0.018677   | 0.063684   |   5.6 |  0.00
Modify  | 31.378     | 44.445     | 62.874     | 200.8 |  8.79
Other   |            | 19.18      |            |       |  3.79

Nlocal:        166.667 ave         211 max         136 min
Histogram: 3 3 6 6 10 2 2 2 1 1
Nghost:        3374.42 ave        3499 max        3245 min
Histogram: 3 0 5 3 7 4 5 5 2 2
Neighs:        40325.4 ave       57800 max       30361 min
Histogram: 3 4 7 9 6 3 2 0 1 1

Total # of neighbors = 1451715
Ave neighs/atom = 241.9525
Ave special neighs/atom = 2
Neighbor list builds = 128
Dangerous builds = 0
PPPM initialization ...
  using 12-bit tables for long-range coulomb (../kspace.cpp:342)
  G vector (1/distance) = 0.27095609
  grid = 54 54 54
  stencil order = 5
  estimated absolute RMS force accuracy = 0.00031368539
  estimated relative force accuracy = 9.4465422e-07
  using double precision KISS FFT
  3d grid and FFT values/proc = 13125 5832
Generated 1 of 1 mixed pair_coeff terms from arithmetic mixing rule
Setting up Verlet run ...
  Unit style    : real
  Current step  : 101599
  Time step     : 0.2
Per MPI rank memory allocation (min/avg/max) = 8.162 | 8.299 | 9.027 Mbytes
   Step         PotEng         KinEng         TotEng         Press           Temp       c_theta_ave    c_length_ave    v_Density   
    101599  -2226.8013      5366.1543      3139.353       640.23568      300.08894      174.80639      1.1601802      0.82810746   
    102000  -2327.2151      5480.1682      3152.953       712.927        306.46489      174.9804       1.1602552      0.83414049   
    103000  -2024.1095      5199.4225      3175.313       68.487492      290.76488      175.00139      1.1606016      0.81704282   
    104000  -2118.793       5341.1221      3222.3291     -216.90028      298.68908      174.82982      1.1608136      0.81034477   
    105000  -2331.3334      5452.4079      3121.0745      359.5824       304.91246      174.89598      1.1604468      0.81671981   
    106000  -2079.9063      5406.6728      3326.7665      480.29906      302.35484      174.90265      1.160401       0.82208021   
    107000  -2051.2966      5259.5413      3208.2447     -491.67515      294.12687      174.92415      1.1611104      0.83373839   
    108000  -2280.2988      5476.5868      3196.288       230.39087      306.26461      174.83296      1.1605066      0.82518147   
    109000  -2311.7082      5384.865       3073.1568      435.6854       301.13529      174.89547      1.1603396      0.82974158   
    110000  -2134.7931      5240.8305      3106.0374     -143.20926      293.08052      174.96718      1.1608582      0.8313702    
    111000  -2317.7093      5303.8471      2986.1378     -235.22992      296.60456      174.94111      1.1609409      0.83488974   
    112000  -2456.6952      5440.8124      2984.1172      674.51971      304.26401      174.93589      1.1602457      0.83954475   
    113000  -2250.1454      5319.6279      3069.4825      181.47515      297.48707      174.91899      1.1606045      0.8343871    
    114000  -2130.1961      5230.077       3099.8809     -48.19635       292.47915      174.85209      1.1607076      0.83340806   
    115000  -2325.683       5475.0444      3149.3613      430.16417      306.17835      174.91859      1.1604625      0.84094354   
    116000  -2343.7475      5515.9794      3172.2319      461.06751      308.46754      174.94121      1.1603706      0.83011201   
    117000  -2085.978       5264.9971      3179.0191     -358.20344      294.43197      174.85064      1.1609597      0.83100529   
    118000  -2283.6399      5387.6089      3103.969       179.17014      301.28874      174.92214      1.1605655      0.8401403    
    119000  -2287.7333      5475.4217      3187.6884      422.81917      306.19945      174.89818      1.1604478      0.82603828   
    120000  -2341.5634      5228.4245      2886.8611      125.33096      292.38674      174.92402      1.1606662      0.8433037    
    121000  -2234.1853      5315.9411      3081.7557     -30.371458      297.28089      174.93925      1.1608113      0.84775858   
    122000  -2321.9612      5405.0953      3083.1341      786.68746      302.26662      174.88555      1.1601424      0.84152621   
    123000  -2293.8665      5501.768       3207.9014      314.61387      307.6728       174.8526       1.1605057      0.83525374   
    124000  -2160.5522      5242.9107      3082.3585     -309.29037      293.19685      175.0071       1.1609274      0.83614122   
    125000  -2220.3807      5353.5526      3133.172       321.9893       299.38423      174.99337      1.1604663      0.83771895   
    126000  -2311.5314      5431.3538      3119.8224      717.56595      303.73506      174.92466      1.1601293      0.83463045   
    127000  -2300.0818      5257.4438      2957.362      -319.58676      294.00958      174.96922      1.1609565      0.8433904    
    128000  -2217.1466      5294.5934      3077.4468      111.21762      296.08707      174.94893      1.1606643      0.84593087   
    129000  -2331.5926      5369.811       3038.2184      520.81456      300.29343      174.95567      1.1603992      0.84708116   
    130000  -2307.4927      5371.5972      3064.1045     -158.87545      300.39332      174.99161      1.1609324      0.8419577    
    131000  -2212.6329      5296.429       3083.7961     -152.61044      296.18973      174.96759      1.1608798      0.83822672   
    132000  -2325.5271      5359.0386      3033.5115      371.08427      299.69101      174.94194      1.1604345      0.84270205   
    133000  -2360.8107      5403.8221      3043.0114      240.26265      302.19542      174.92805      1.1605995      0.84326511   
    134000  -2202.9586      5424.8847      3221.9261      74.867862      303.3733       174.8918       1.160666       0.83896931   
    135000  -2145.0904      5376.1742      3231.0838      126.44033      300.64928      174.95688      1.1606263      0.83209868   
    136000  -2178.4049      5368.2531      3189.8482      471.48549      300.20631      174.84975      1.1603285      0.82973707   
    137000  -2250.487       5387.3323      3136.8453      16.14319       301.27327      174.85903      1.1607634      0.83156589   
    138000  -2240.2894      5300.313       3060.0236     -342.16549      296.40693      174.92238      1.1610138      0.84058246   
    139000  -2231.5223      5373.0497      3141.5275      755.14051      300.47455      174.93409      1.1601566      0.83620503   
    140000  -2282.3113      5381.4915      3099.1801      226.04063      300.94664      174.93403      1.1606257      0.83191564   
    141000  -2233.8003      5430.6389      3196.8386     -141.23771      303.69509      174.9135       1.160892       0.82545486   
    142000  -2163.7976      5212.9331      3049.1355      525.67716      291.52043      174.92119      1.160265       0.82478177   
    143000  -2339.8554      5354.4247      3014.5694      455.34921      299.43299      174.98373      1.1603849      0.84128548   
    144000  -2404.9852      5412.5855      3007.6003     -105.75078      302.68549      175.02317      1.1608549      0.84173139   
    145000  -2155.5164      5205.2181      3049.7018      61.979888      291.08898      174.89582      1.1605782      0.82891317   
    146000  -2257.4434      5271.4725      3014.0291      1652.6604      294.7941       174.91049      1.1594543      0.84458201   
    147000  -2357.9678      5274.7689      2916.801      -100.37729      294.97844      174.9009       1.1607945      0.84432344   
    148000  -2257.2785      5342.2585      3084.9801     -74.016461      298.75263      174.91161      1.1607693      0.83422681   
    149000  -2231.5541      5351.5876      3120.0335      342.44462      299.27434      174.85044      1.1604354      0.8335799    
    150000  -2241.3965      5379.8618      3138.4653      189.50008      300.8555       174.8551       1.1605849      0.83762979   
    151000  -2223.6836      5400.6513      3176.9678     -106.62709      302.0181       174.86789      1.1608412      0.83816597   
    152000  -2389.83        5390.5315      3000.7016      366.20653      301.45218      174.99745      1.16044        0.84189259   
    153000  -2257.9051      5306.5627      3048.6576      883.73271      296.75643      174.96412      1.1600633      0.84087165   
    154000  -2221.9469      5277.8274      3055.8805     -260.60427      295.14948      174.89331      1.1609321      0.82889733   
    155000  -2216.4457      5341.4693      3125.0235      169.69219      298.70849      174.83075      1.1606912      0.83646628   
    156000  -2107.6264      5478.7811      3371.1546      374.71643      306.38732      174.83963      1.1605362      0.82626089   
    157000  -2189.5711      5328.3736      3138.8025      149.26139      297.97615      174.83217      1.1606233      0.83100158   
    158000  -2171.8412      5363.9289      3192.0876      121.41615      299.96449      174.85092      1.1606567      0.82784453   
    159000  -2236.9021      5341.6482      3104.7461      277.28809      298.7185       174.87099      1.160515       0.83400151   
    160000  -2188.6223      5340.6207      3151.9984      319.71891      298.66104      174.86248      1.1604577      0.83211899   
    161000  -2363.7961      5276.044       2912.2479     -359.5613       295.04974      175.00336      1.1609352      0.83883809   
    162000  -2373.6427      5263.9993      2890.3566      257.10223      294.37617      174.9152       1.160588       0.84889777   
    163000  -2279.6806      5357.0037      3077.3231      307.98485      299.57722      174.95196      1.1604286      0.84003027   
    164000  -2300.9007      5274.3084      2973.4078     -137.31935      294.95269      175.04786      1.1607757      0.83353843   
    165000  -2220.5641      5375.7327      3155.1686     -159.81737      300.62459      174.91611      1.1608553      0.83722425   
    166000  -2145.5912      5427.551       3281.9597      538.35551      303.5224       174.86014      1.1603324      0.83249112   
    167000  -2307.0981      5408.1524      3101.0543      156.62008      302.43758      174.99864      1.160632       0.84002351   
    168000  -2296.0663      5341.306       3045.2397     -387.14643      298.69936      174.99933      1.1610156      0.84088708   
    169000  -2381.0348      5354.4084      2973.3736      548.083        299.43208      174.95285      1.1603469      0.85294968   
    170000  -2311.8575      5261.7435      2949.8861      348.21573      294.25003      174.89228      1.160385       0.84359254   
    171000  -2235.1366      5275.5005      3040.364      -21.537247      295.01935      174.92246      1.1606943      0.83437269   
    172000  -2349.8762      5394.2931      3044.4169      72.393203      301.66254      174.96368      1.1606225      0.84899227   
    173000  -2285.3938      5395.7885      3110.3947      886.37713      301.74616      174.88354      1.1599859      0.84590344   
    174000  -2255.578       5451.235       3195.657      -74.870044      304.84687      174.9221       1.1607717      0.85427732   
    175000  -2245.2439      5406.1699      3160.926       6.2633006      302.32672      174.909        1.1608495      0.85878251   
    176000  -2325.3432      5375.1081      3049.7649      308.41835      300.58966      174.93891      1.1605095      0.84824288   
    177000  -2212.5641      5379.4923      3166.9282      227.64883      300.83484      174.90918      1.1606306      0.84377157   
    178000  -2296.6474      5322.6334      3025.986      -221.63481      297.65514      174.89033      1.1608736      0.84271113   
    179000  -2256.0844      5310.4647      3054.3802      291.97866      296.97464      174.92224      1.1604075      0.83317357   
    180000  -2261.5553      5356.3762      3094.8209      311.30796      299.54212      174.92867      1.1604594      0.83956329   
    181000  -2373.5905      5321.1176      2947.5271      32.634213      297.57038      174.94354      1.1607982      0.85585866   
    182000  -2296.5971      5331.5831      3034.9861      30.347063      298.15563      174.95467      1.160775       0.85921584   
    183000  -2345.7396      5341.9007      2996.1611      751.20982      298.73262      174.91196      1.1601227      0.85471439   
    184000  -2301.1469      5368.6572      3067.5103      31.574601      300.22891      174.91083      1.1607304      0.85585221   
    185000  -2210.3354      5384.9354      3174.6        -48.611484      301.13923      174.86227      1.1607397      0.83600926   
    186000  -2200.5595      5311.249       3110.6895      330.0787       297.0185       174.79515      1.1604456      0.8397566    
    187000  -2292.2833      5537.5608      3245.2775      240.67038      309.67443      174.8964       1.1606201      0.85018972   
    188000  -2191.661       5333.3603      3141.6993      98.824261      298.25502      174.91078      1.1606616      0.83542701   
    189000  -2243.927       5309.4202      3065.4932      255.76473      296.91623      174.83819      1.160516       0.8430123    
    190000  -2151.3502      5385.9437      3234.5935      405.86286      301.19561      174.8384       1.1604281      0.83046398   
    191000  -2278.3033      5379.5109      3101.2075     -217.28938      300.83587      175.00313      1.1608975      0.83341296   
    192000  -2256.7505      5356.7706      3100.0201     -70.026164      299.56418      174.94398      1.1608221      0.84001227   
    193000  -2205.7573      5309.25        3103.4927      608.16472      296.90671      174.93934      1.1601292      0.83181632   
    194000  -2166.2826      5350.1324      3183.8498      155.97492      299.19296      174.9145       1.1605918      0.82533545   
    195000  -2008.6472      5376.9825      3368.3353      11.185914      300.69449      174.80364      1.1607132      0.81555784   
    196000  -2181.1506      5370.4573      3189.3066      276.27034      300.32958      174.8879       1.1605682      0.83352252   
    197000  -2202.718       5321.441       3118.723       446.95996      297.58846      174.83376      1.1603335      0.83524853   
    198000  -2273.1722      5220.9091      2947.7369     -416.01442      291.96646      174.89747      1.1609962      0.83909105   
    199000  -2285.8156      5419.2326      3133.417       122.09656      303.05721      174.99897      1.1606589      0.84872438   
    200000  -2201.7777      5339.9529      3138.1753      370.62268      298.6237       174.87635      1.1604519      0.84495084   
    201000  -2282.853       5383.6846      3100.8315     -29.387166      301.06928      174.87766      1.1608367      0.85630771   
    201599  -2437.352       5341.5517      2904.1997      152.29084      298.7131       175.00923      1.1606581      0.86293856   
Loop time of 572.656 on 36 procs for 100000 steps with 6000 atoms

Performance: 3.018 ns/day, 7.954 hours/ns, 174.625 timesteps/s, 1.048 Matom-step/s
99.2% CPU use with 36 MPI tasks x no OpenMP threads

MPI task timing breakdown:
Section |  min time  |  avg time  |  max time  |%varavg| %total
---------------------------------------------------------------
Pair    | 49.147     | 60.158     | 71.654     |  79.1 | 10.51
Bond    | 0.66613    | 0.73303    | 0.80444    |   4.1 |  0.13
Kspace  | 386.48     | 401.35     | 414.34     |  35.6 | 70.09
Neigh   | 0.29957    | 0.31616    | 0.32969    |   1.5 |  0.06
Comm    | 34.197     | 37.522     | 42.751     |  31.7 |  6.55
Output  | 0.016847   | 0.018308   | 0.066344   |   6.0 |  0.00
Modify  | 34.064     | 53.883     | 71.419     | 219.1 |  9.41
Other   |            | 18.67      |            |       |  3.26

Nlocal:        166.667 ave         189 max         141 min
Histogram: 1 2 3 5 5 6 4 4 2 4
Nghost:        3463.44 ave        3522 max        3394 min
Histogram: 2 2 4 4 3 3 5 8 3 2
Neighs:        41449.5 ave       50121 max       31143 min
Histogram: 1 0 4 4 7 8 5 1 4 2

Total # of neighbors = 1492183
Ave neighs/atom = 248.69717
Ave special neighs/atom = 2
Neighbor list builds = 219
Dangerous builds = 0
PPPM initialization ...
  using 12-bit tables for long-range coulomb (../kspace.cpp:342)
  G vector (1/distance) = 0.26729206
  grid = 50 50 50
  stencil order = 5
  estimated absolute RMS force accuracy = 0.00042464436
  estimated relative force accuracy = 1.2788039e-06
  using double precision KISS FFT
  3d grid and FFT values/proc = 12500 5000
Generated 1 of 1 mixed pair_coeff terms from arithmetic mixing rule
Setting up Verlet run ...
  Unit style    : real
  Current step  : 201599
  Time step     : 0.25
Per MPI rank memory allocation (min/avg/max) = 8.034 | 8.165 | 8.932 Mbytes
   Step         PotEng         KinEng         TotEng         Press           Temp       c_theta_ave    c_length_ave    v_Density   
    201599  -2437.3548      5341.5517      2904.1969      152.28728      298.7131       175.00923      1.1606581      0.86293856   
    202000  -2441.8062      5282.6227      2840.8164     -239.29946      295.41764      175.01435      1.1609301      0.86841734   
    203000  -2379.9445      5399.7263      3019.7818     -277.12175      301.96637      174.90347      1.1609192      0.86194361   
    204000  -2382.1983      5328.7663      2946.568       1.4290349      297.99811      174.9567       1.1607753      0.85559046   
    205000  -2187.845       5263.1591      3075.3141      171.52857      294.32919      174.83303      1.1605918      0.84392776   
    206000  -2338.2395      5383.2021      3044.9625      244.74819      301.0423       174.93165      1.1605254      0.85690409   
    207000  -2375.8348      5424.6431      3048.8083      341.52475      303.35978      175.00905      1.1604869      0.8586891    
    208000  -2326.1327      5313.6003      2987.4676      426.72745      297.14999      174.87423      1.1604284      0.8604066    
    209000  -2266.0755      5389.2442      3123.1687      489.06173      301.38019      174.88642      1.1605169      0.8637593    
    210000  -2395.8525      5389.6042      2993.7517      62.392367      301.40032      174.94032      1.1606616      0.84961753   
    211000  -2225.4447      5344.6455      3119.2008     -19.204578      298.88611      174.92284      1.1607687      0.84414683   
    212000  -2186.8742      5299.2053      3112.3311     -135.60352      296.34498      174.75045      1.1608199      0.84511558   
    213000  -2303.6228      5369.5177      3065.8949     -149.5328       300.27703      174.91623      1.160866       0.84682783   
    214000  -2213.8165      5372.8707      3159.0542      179.99968      300.46454      174.95151      1.1605741      0.83496516   
    215000  -2253.4672      5372.2229      3118.7557      350.78733      300.42831      174.9025       1.1604211      0.8384204    
    216000  -2264.6223      5269.3276      3004.7053      736.25985      294.67415      174.91734      1.1601585      0.83795317   
    217000  -2327.0239      5277.2097      2950.1858      396.37363      295.11493      174.92558      1.1604942      0.86325562   
    218000  -2305.5687      5317.6153      3012.0466      235.25233      297.37452      174.86679      1.1604585      0.845422     
    219000  -2244.6736      5321.2195      3076.5459     -49.467848      297.57608      174.92698      1.1608359      0.84792487   
    220000  -2173.9213      5317.6248      3143.7035     -213.34507      297.37505      174.93322      1.1608243      0.83993223   
    221000  -2226.8404      5508.1612      3281.3208     -31.188744      308.03033      174.94766      1.1607699      0.84001535   
    222000  -2147.6887      5346.718       3199.0293      71.777696      299.00202      174.90136      1.1607042      0.83575187   
    223000  -2266.8111      5367.0748      3100.2638      419.90921      300.14042      174.94127      1.1603703      0.84374497   
    224000  -2251.3609      5373.0177      3121.6568      418.11606      300.47276      174.94492      1.1604272      0.84495146   
    225000  -2136.6535      5389.7722      3253.1187      555.56322      301.40972      174.87571      1.1602892      0.84044587   
    226000  -2310.9235      5399.1645      3088.241       468.42962      301.93496      174.93294      1.1604533      0.85992763   
    227000  -2372.8681      5329.8503      2956.9822      126.48074      298.05873      174.90725      1.1607218      0.86286191   
    228000  -2337.0342      5185.3958      2848.3616     -522.11825      289.98047      174.96504      1.1611288      0.86292157   
    229000  -2223.5874      5253.6653      3030.0779     -261.65125      293.79827      174.83823      1.1608349      0.83989075   
    230000  -2406.1717      5365.7708      2959.599      -82.60563       300.06749      174.9462       1.1607485      0.84861632   
    231000  -2271.2526      5389.2011      3117.9485      250.0116       301.37778      174.86214      1.1605598      0.86310254   
    232000  -2333.9548      5289.7962      2955.8413      671.64122      295.8188       174.85033      1.1601761      0.86043542   
    233000  -2306.0299      5336.039       3030.009       503.41728      298.40482      174.90253      1.1603006      0.84829581   
    234000  -2166.992       5281.7254      3114.7334      276.38518      295.36746      174.88919      1.1605139      0.83754584   
    235000  -2266.1114      5378.5209      3112.4094      347.48152      300.78051      174.85977      1.1605955      0.85048891   
    236000  -2205.5586      5237.808       3032.2495     -138.24165      292.91149      174.82092      1.160888       0.83653087   
    237000  -2251.5607      5345.824       3094.2633     -261.88712      298.95202      174.93252      1.1609376      0.8355       
    238000  -2222.5037      5333.9175      3111.4138     -246.5577       298.28618      174.83785      1.160978       0.84257574   
    239000  -2228.5456      5342.9572      3114.4116     -144.8567       298.7917       174.87363      1.1607957      0.83788107   
    240000  -2163.0408      5272.0582      3109.0174      282.62238      294.82685      174.88621      1.1605387      0.84378332   
    241000  -2263.9588      5358.4585      3094.4997      739.01592      299.65858      174.89003      1.1600881      0.83791714   
    242000  -2172.0853      5331.3492      3159.2639      779.94504      298.14255      174.84502      1.1601088      0.84002664   
    243000  -2258.6292      5334.4469      3075.8177      535.44434      298.31578      174.87449      1.1602999      0.84363133   
    244000  -2162.7459      5377.1608      3214.4149      120.276        300.70445      174.90423      1.160587       0.82920199   
    245000  -2120.6762      5355.0097      3234.3336     -133.93794      299.46571      174.88023      1.1608306      0.83050953   
    246000  -2184.4495      5422.5301      3238.0806     -79.120104      303.24162      174.92232      1.1607613      0.82937642   
    247000  -2042.5738      5326.1591      3283.5853      29.557921      297.85231      174.79954      1.1606816      0.82827193   
    248000  -2184.6736      5357.231       3172.5574      144.39535      299.58993      174.86117      1.160602       0.83947185   
    249000  -2314.4632      5417.2667      3102.8035      843.10234      302.94728      174.95865      1.1601419      0.84979982   
    250000  -2302.9563      5397.088       3094.1316      606.8344       301.81883      175.00842      1.1603338      0.85471524   
    251000  -2346.3301      5350.879       3004.5489      477.71809      299.23471      175.02069      1.1604243      0.86111073   
    252000  -2381.9531      5436.2188      3054.2657      366.8306       304.00713      174.95884      1.1604948      0.86055033   
    253000  -2215.8117      5321.08        3105.2683     -85.080593      297.56827      174.8938       1.1606737      0.84144082   
    254000  -2305.5417      5410.5024      3104.9606     -259.68411      302.569        174.9344       1.1609231      0.84937175   
    255000  -2427.0139      5372.572       2945.5582     -383.32662      300.44784      175.01041      1.161119       0.85828658   
    256000  -2267.7077      5306.8843      3039.1766     -4.2469025      296.77441      174.94459      1.1606531      0.84576272   
    257000  -2314.6379      5333.6163      3018.9784      289.37238      298.26933      174.91801      1.1605299      0.85358968   
    258000  -2265.856       5314.041       3048.185       594.27068      297.17464      174.93556      1.1603279      0.8532481    
    259000  -2251.2566      5343.1645      3091.9079      712.70813      298.8033       174.83859      1.1601944      0.8443883    
    260000  -2311.7241      5385.5881      3073.8639      545.85513      301.17573      174.94617      1.1603356      0.84271449   
    261000  -2275.4027      5303.6396      3028.2369      144.60281      296.59296      174.88012      1.1605932      0.84932223   
    262000  -2285.1563      5493.5787      3208.4224     -3.1657934      307.21484      174.96123      1.1607576      0.85001296   
    263000  -2303.391       5426.0295      3122.6385      67.594699      303.43732      174.93887      1.1607415      0.84483889   
    264000  -2221.2096      5410.5106      3189.301       50.572945      302.56946      174.99127      1.1607197      0.83611792   
    265000  -2122.0476      5357.6369      3235.5893      200.97952      299.61263      174.93571      1.1605761      0.82968663   
    266000  -2170.3673      5411.1333      3240.766       518.11709      302.60428      174.96086      1.160351       0.83083539   
    267000  -2140.2701      5376.1999      3235.9298      485.33763      300.65071      174.84713      1.1603815      0.82889165   
    268000  -2317.2413      5287.9261      2970.6848      672.69861      295.71422      174.94919      1.1602614      0.84355964   
    269000  -2356.6864      5407.6451      3050.9587      252.23678      302.40921      174.90156      1.1605031      0.84644081   
    270000  -2152.4905      5453.2343      3300.7438      8.5665677      304.95868      174.97037      1.1606952      0.82963365   
    271000  -2172.8145      5354.863       3182.0485     -150.4138       299.4575       174.89082      1.1608858      0.837218     
    272000  -2270.2252      5279.8229      3009.5977     -316.61263      295.26107      174.94032      1.160962       0.83889837   
    273000  -2248.6808      5338.1991      3089.5183      33.513798      298.52561      174.92697      1.1606107      0.82739853   
    274000  -2256.2996      5386.2754      3129.9758      265.31371      301.21416      174.86766      1.1605127      0.8368647    
    275000  -2154.5746      5393.093       3238.5184      819.66343      301.59542      174.90484      1.1601409      0.83510739   
    276000  -2135.7659      5388.2154      3252.4495      526.14138      301.32266      174.87252      1.160292       0.82150267   
    277000  -2097.2999      5386.8848      3289.5849      210.82971      301.24824      174.89806      1.1606576      0.81910697   
    278000  -2206.8403      5274.0832      3067.243       108.66669      294.94009      174.92805      1.1606078      0.8275689    
    279000  -2161.4536      5367.5691      3206.1155     -91.473824      300.16806      174.9204       1.1607319      0.8271697    
    280000  -2290.6237      5420.701       3130.0774     -177.51212      303.13933      174.96235      1.1608741      0.84970003   
    281000  -2204.4783      5334.8068      3130.3285     -29.892953      298.33591      174.81008      1.1607154      0.84850124   
    282000  -2307.4594      5437.9812      3130.5218      439.03403      304.10568      174.8816       1.1603907      0.84831303   
    283000  -2284.0665      5355.9517      3071.8853      726.31138      299.51839      174.92059      1.160203       0.84982939   
    284000  -2136.2104      5328.1723      3191.9619      570.5275       297.96489      174.87509      1.1602988      0.83715963   
    285000  -2179.9066      5343.4187      3163.5121      385.20435      298.81751      174.91696      1.1603304      0.82748549   
    286000  -2292.3261      5330.9687      3038.6426      68.445009      298.12128      174.88039      1.1607404      0.84109638   
    287000  -2161.0854      5281.8797      3120.7944     -107.35557      295.3761       174.79079      1.1607596      0.83369046   
    288000  -2284.3874      5380.138       3095.7506     -626.84179      300.87094      174.90542      1.1612398      0.84356805   
    289000  -2247.4957      5357.21        3109.7143     -105.12532      299.58875      174.95783      1.1608844      0.84281345   
    290000  -2214.8473      5346.8674      3132.0201      202.59723      299.01037      174.92771      1.1605621      0.84085715   
    291000  -2273.4767      5367.0446      3093.5679      698.0308       300.13873      174.92154      1.1601966      0.84670841   
    292000  -2273.3156      5295.0627      3021.7471      923.07982      296.11332      174.95372      1.1599738      0.84297331   
    293000  -2269.0288      5423.4049      3154.3761      482.2093       303.29054      174.92812      1.1603668      0.84788163   
    294000  -2220.8833      5325.9898      3105.1064      180.29169      297.84284      174.95164      1.1606249      0.83683609   
    295000  -2128.9458      5388.5985      3259.6527      19.150534      301.34408      174.8846       1.1606635      0.82235978   
    296000  -2141.6338      5359.6409      3218.007      -324.96269      299.72469      174.87135      1.1610825      0.83580012   
    297000  -2126.456       5364.2331      3237.7771     -233.32038      299.9815       174.89877      1.1608621      0.82997257   
    298000  -2095.5721      5398.6493      3303.0772      141.4356       301.90615      174.9026       1.1606377      0.83441351   
    299000  -2151.8309      5350.1232      3198.2923      314.16064      299.19244      174.83771      1.1605262      0.84538436   
    300000  -2136.4797      5431.1201      3294.6404      265.4707       303.72199      174.94094      1.1604565      0.83140754   
    301000  -2266.5799      5349.9896      3083.4098      440.12355      299.18497      174.89403      1.1604093      0.85684245   
    301599  -2353.5921      5376.3057      3022.7136     -370.91527      300.65663      174.88895      1.1610553      0.86060604   
Loop time of 489.258 on 36 procs for 100000 steps with 6000 atoms

Performance: 4.415 ns/day, 5.436 hours/ns, 204.391 timesteps/s, 1.226 Matom-step/s
99.2% CPU use with 36 MPI tasks x no OpenMP threads

MPI task timing breakdown:
Section |  min time  |  avg time  |  max time  |%varavg| %total
---------------------------------------------------------------
Pair    | 50.982     | 60.4       | 66.019     |  45.9 | 12.35
Bond    | 0.67797    | 0.7283     | 0.78231    |   2.8 |  0.15
Kspace  | 324.78     | 330.38     | 339.59     |  19.2 | 67.53
Neigh   | 0.3596     | 0.37757    | 0.38796    |   1.4 |  0.08
Comm    | 33.132     | 34.913     | 39.352     |  24.5 |  7.14
Output  | 0.015626   | 0.016861   | 0.056812   |   5.2 |  0.00
Modify  | 29.509     | 43.332     | 61.236     | 203.2 |  8.86
Other   |            | 19.11      |            |       |  3.91

Nlocal:        166.667 ave         199 max         134 min
Histogram: 2 0 3 5 10 4 5 5 0 2
Nghost:         3466.5 ave        3537 max        3407 min
Histogram: 2 1 8 6 5 5 1 4 2 2
Neighs:        41691.6 ave       56035 max       32926 min
Histogram: 4 2 8 4 9 4 3 1 0 1

Total # of neighbors = 1500899
Ave neighs/atom = 250.14983
Ave special neighs/atom = 2
Neighbor list builds = 276
Dangerous builds = 0
PPPM initialization ...
  using 12-bit tables for long-range coulomb (../kspace.cpp:342)
  G vector (1/distance) = 0.26724215
  grid = 50 50 50
  stencil order = 5
  estimated absolute RMS force accuracy = 0.00042575172
  estimated relative force accuracy = 1.2821387e-06
  using double precision KISS FFT
  3d grid and FFT values/proc = 12500 5000
Generated 1 of 1 mixed pair_coeff terms from arithmetic mixing rule
Setting up Verlet run ...
  Unit style    : real
  Current step  : 301599
  Time step     : 0.5
Per MPI rank memory allocation (min/avg/max) = 8.034 | 8.165 | 8.932 Mbytes
   Step         PotEng         KinEng         TotEng         Press           Temp       c_theta_ave    c_length_ave    v_Density   
    301599  -2353.5922      5376.3057      3022.7135     -370.91526      300.65663      174.88895      1.1610553      0.86060604   
    302000  -2341.2645      5282.0019      2940.7374      312.53472      295.38293      174.95839      1.1604425      0.85059528   
    303000  -2267.295       5317.2834      3049.9885      663.82485      297.35596      174.92598      1.1601698      0.8447905    
    304000  -2315.351       5337.5961      3022.2451      243.88884      298.4919       174.89834      1.1605266      0.84674781   
    305000  -2142.6034      5393.849       3251.2456     -167.17978      301.6377       174.81295      1.1608416      0.83787306   
    306000  -2351.4499      5323.0047      2971.5548     -37.777536      297.67591      174.9954       1.1608544      0.85771941   
    307000  -2291.6143      5400.206       3108.5917      217.07633      301.9932       174.92916      1.1605719      0.85008664   
    308000  -2357.5818      5339.992       2982.4102      564.51609      298.62588      174.94548      1.1602815      0.85674049   
    309000  -2332.8067      5427.2487      3094.442       539.74758      303.50549      174.89849      1.1603079      0.85261631   
    310000  -2330.9952      5349.9963      3019.0011     -4.6887365      299.18535      174.88955      1.1607703      0.85716049   
    311000  -2349.2895      5356.9295      3007.64       -206.51576      299.57307      174.98727      1.1608445      0.8524128    
    312000  -2220.7824      5405.6611      3184.8786      108.16655      302.29826      174.87307      1.1606173      0.84414872   
    313000  -2194.2521      5381.8409      3187.5889      463.95552      300.96618      174.89082      1.1603661      0.83925599   
    314000  -2192.2725      5276.7001      3084.4276      338.3005       295.08643      174.88403      1.1605133      0.84523446   
    315000  -2203.6801      5352.3467      3148.6666     -325.55577      299.31679      174.8952       1.1610177      0.84140569   
    316000  -2317.7893      5340.0419      3022.2526     -399.72501      298.62867      174.85856      1.160972       0.84947375   
    317000  -2342.7832      5456.9037      3114.1205      194.78503      305.16388      174.91398      1.1605924      0.85012104   
    318000  -2346.1885      5434.1338      3087.9453      849.65556      303.89053      174.98504      1.1600568      0.84811335   
    319000  -2125.6015      5257.0104      3131.4089      238.55711      293.98534      174.86867      1.1604873      0.83640514   
    320000  -2235.3768      5293.2711      3057.8943     -510.05969      296.01313      174.87002      1.1611069      0.84522373   
    321000  -2247.9035      5366.5792      3118.6757     -216.57916      300.1127       174.94169      1.1608694      0.84329086   
    322000  -2313.7385      5444.3302      3130.5917      87.321663      304.46074      174.97133      1.1605904      0.83949331   
    323000  -2287.6363      5414.9474      3127.3111      325.76106      302.81757      174.95154      1.1604555      0.83912045   
    324000  -2142.1729      5372.9218      3230.7489      625.28152      300.4674       174.85123      1.160164       0.84012937   
    325000  -2359.072       5370.2567      3011.1848      66.484166      300.31836      174.88277      1.1606383      0.86139913   
    326000  -2308.323       5388.7077      3080.3847     -205.96917      301.35018      174.95611      1.160883       0.84885844   
    327000  -2246.6517      5402.05        3155.3984      36.414238      302.09632      174.90446      1.1607378      0.85027626   
    328000  -2272.8779      5423.4976      3150.6197      778.9695       303.29572      174.92789      1.1600803      0.84269933   
    329000  -2290.8265      5333.3278      3042.5012      567.95618      298.2532       174.90059      1.1603097      0.84999975   
    330000  -2275.7643      5346.5698      3070.8055      20.143168      298.99373      174.91916      1.160725       0.84781481   
    331000  -2201.1609      5371.0253      3169.8644     -256.02169      300.36134      174.87177      1.1609695      0.83930725   
    332000  -2325.2678      5420.3007      3095.033       142.46494      303.11695      174.88336      1.1606387      0.84797298   
    333000  -2355.5085      5318.1719      2962.6634      645.41091      297.40564      174.93893      1.1602497      0.85659409   
    334000  -2350.4443      5363.7883      3013.344       442.74245      299.95663      174.98184      1.160358       0.85683583   
    335000  -2227.1689      5415.4963      3188.3275      159.22877      302.84827      174.83926      1.160627       0.84177525   
    336000  -2259.1622      5367.317       3108.1549     -493.09882      300.15397      174.89176      1.1611683      0.84172281   
    337000  -2299.267       5375.5666      3076.2997     -30.3129        300.6153       174.88212      1.1607961      0.85119911   
    338000  -2425.8383      5412.8611      2987.0228      487.04948      302.70091      174.84263      1.1603219      0.85755478   
    339000  -2226.2881      5393.2991      3167.011       1136.452       301.60695      174.88131      1.1598446      0.84475941   
    340000  -2404.3716      5388.8858      2984.5142      189.29208      301.36014      174.98584      1.160581       0.86000939   
    341000  -2243.2173      5311.091       3067.8737     -236.5808       297.00966      174.86219      1.1608513      0.84852143   
    342000  -2284.3764      5357.1681      3072.7917     -398.6954       299.58641      174.87702      1.1610599      0.85056079   
    343000  -2296.2389      5343.1509      3046.912       399.17268      298.80254      174.8321       1.1603984      0.85819605   
    344000  -2326.0733      5326.9981      3000.9249      439.75806      297.89923      174.94307      1.1604044      0.85433604   
    345000  -2196.9757      5444.4519      3247.4762      281.72904      304.46754      174.89604      1.1604926      0.84526435   
    346000  -2419.7228      5282.6296      2862.9067     -584.11313      295.41803      174.86931      1.1612092      0.87299638   
    347000  -2239.5565      5261.6786      3022.1221     -136.18542      294.2464       174.82736      1.1608746      0.86128125   
    348000  -2268.7299      5362.6861      3093.9562      279.59886      299.89499      174.80935      1.1605913      0.8551934    
    349000  -2210.2014      5374.2369      3164.0355      914.0941       300.54094      174.87613      1.1599984      0.84260283   
    350000  -2182.4899      5365.4929      3183.003       625.34538      300.05196      174.86928      1.1602224      0.83843746   
    351000  -2202.1438      5445.3598      3243.216      -83.270037      304.51831      174.87921      1.1608612      0.84584406   
    352000  -2142.5819      5371.0286      3228.4467     -381.20715      300.36153      174.90286      1.1609997      0.84363251   
    353000  -2261.5265      5432.0118      3170.4853      137.40961      303.77186      174.8552       1.1606815      0.85020996   
    354000  -2416.1667      5399.2269      2983.0602      265.67351      301.93845      174.93454      1.1605215      0.8679296    
    355000  -2264.7084      5404.6812      3139.9729      222.58315      302.24347      174.89019      1.1605239      0.85286779   
    356000  -2185.6062      5383.8137      3198.2075      62.111938      301.0765       174.76752      1.1606781      0.85415527   
    357000  -2263.3914      5270.2676      3006.8762     -1137.5276      294.72671      174.91674      1.1615911      0.84881046   
    358000  -2241.3703      5360.5951      3119.2248      240.20128      299.77806      174.88251      1.1605572      0.84572012   
    359000  -2326.6731      5308.3706      2981.6976      579.37274      296.85753      174.97599      1.1603266      0.85770054   
    360000  -2278.2355      5347.1263      3068.8908      372.78969      299.02485      174.8923       1.1604466      0.84937787   
    361000  -2315.7547      5305.1481      2989.3934      91.05334       296.67732      174.89836      1.1606384      0.84940513   
    362000  -2205.8793      5322.8869      3117.0076     -322.21019      297.66932      174.78043      1.1608904      0.84417197   
    363000  -2262.6114      5419.096       3156.4846      22.305207      303.04958      174.85282      1.1606707      0.84452422   
    364000  -2240.3303      5409.974       3169.6437      765.25265      302.53945      174.9005       1.160087       0.84208075   
    365000  -2266.7842      5325.0373      3058.2531      511.34063      297.78958      174.83542      1.1602992      0.83473996   
    366000  -2194.1049      5510.8107      3316.7058     -40.970045      308.17849      174.92223      1.1607615      0.83081678   
    367000  -2295.0571      5414.1972      3119.1401     -258.86859      302.77562      174.8821       1.1609432      0.85099481   
    368000  -2317.6145      5345.0356      3027.4211      5.9596943      298.90793      174.94336      1.1607327      0.86380882   
    369000  -2336.5388      5344.5641      3008.0254      685.61486      298.88157      174.88399      1.1601917      0.85409973   
    370000  -2218.8765      5375.0618      3156.1853      1051.0988      300.58707      174.82367      1.1598507      0.83769264   
    371000  -2188.625       5325.6434      3137.0184      152.0391       297.82347      174.83089      1.1606155      0.84057238   
    372000  -2306.6615      5345.8875      3039.226      -378.53939      298.95557      174.84874      1.1610777      0.85638311   
    373000  -2342.4165      5471.9047      3129.4882     -62.179836      306.00277      174.93457      1.1608081      0.85935242   
    374000  -2319.2961      5355.731       3036.4349      566.29502      299.50605      174.83556      1.1603471      0.86145596   
    375000  -2334.8095      5334.9842      3000.1747      931.66997      298.34583      174.88838      1.1599786      0.86361766   
    376000  -2306.9657      5327.7513      3020.7857      227.64676      297.94135      174.88869      1.1605425      0.85184398   
    377000  -2218.534       5209.1849      2990.6509     -219.59789      291.31082      174.81849      1.1608462      0.8501084    
    378000  -2308.3684      5429.1299      3120.7616     -578.94878      303.6107       174.86835      1.161208       0.85539719   
    379000  -2260.8742      5370.4007      3109.5265      358.01812      300.32641      174.84893      1.1604187      0.85185445   
    380000  -2216.4264      5432.2838      3215.8574      528.28438      303.78707      174.87276      1.1603276      0.84505867   
    381000  -2390.219       5353.811       2963.592       379.19894      299.39867      174.90733      1.1604869      0.86397435   
    382000  -2315.0908      5285.9425      2970.8517     -279.55783      295.6033       174.96985      1.1609289      0.85888523   
    383000  -2272.4905      5259.7763      2987.2858     -50.638298      294.14001      174.86035      1.1607835      0.85815377   
    384000  -2334.6824      5397.6233      3062.9408      379.00558      301.84877      174.93981      1.1605058      0.85935321   
    385000  -2334.058       5431.5783      3097.5203      637.10645      303.74762      174.92533      1.1602515      0.86297854   
    386000  -2264.1919      5369.7669      3105.575       370.30863      300.29097      174.78818      1.1604691      0.85298665   
    387000  -2235.9142      5393.5592      3157.6451     -7.9444229      301.62149      174.89786      1.1607027      0.85287563   
    388000  -2361.5865      5346.3333      2984.7468     -814.14612      298.9805       174.8523       1.1613446      0.86912362   
    389000  -2363.3569      5238.5569      2875.1999      122.59005      292.95337      174.93276      1.160636       0.8728129    
    390000  -2448.1458      5400.2016      2952.0558      520.35106      301.99295      174.95623      1.1602981      0.87473299   
    391000  -2399.9834      5413.316       3013.3327      647.59646      302.72634      174.83305      1.1602         0.87102238   
    392000  -2356.0681      5375.7376      3019.6695     -126.66301      300.62486      174.87716      1.1608473      0.85457267   
    393000  -2316.4781      5341.2659      3024.7878     -184.32434      298.69712      174.82273      1.1608663      0.86802553   
    394000  -2327.585       5382.1434      3054.5584     -30.924203      300.98309      174.91714      1.1607595      0.86413123   
    395000  -2419.3001      5332.8009      2913.5008      647.14207      298.22373      174.8586       1.1602539      0.88134543   
    396000  -2384.7608      5296.0954      2911.3346      285.73418      296.17107      174.88191      1.1604904      0.86644531   
    397000  -2329.0062      5386.2812      3057.2751      27.097867      301.21449      174.85054      1.1607351      0.84416825   
    398000  -2315.7025      5431.0251      3115.3226      41.557919      303.71668      174.81404      1.1607997      0.85503017   
    399000  -2147.3591      5380.9152      3233.5561     -18.88304       300.91441      174.80737      1.1607348      0.84632688   
    400000  -2259.3465      5344.9845      3085.638       408.88969      298.90507      174.92924      1.1603971      0.84538386   
    401000  -2320.0862      5289.2771      2969.1909      517.88637      295.78978      174.90241      1.1603192      0.85453752   
    401599  -2179.948       5381.8564      3201.9084      597.80899      300.96704      174.82175      1.1603228      0.84795968   
Loop time of 489.936 on 36 procs for 100000 steps with 6000 atoms

Performance: 8.817 ns/day, 2.722 hours/ns, 204.108 timesteps/s, 1.225 Matom-step/s
99.2% CPU use with 36 MPI tasks x no OpenMP threads

MPI task timing breakdown:
Section |  min time  |  avg time  |  max time  |%varavg| %total
---------------------------------------------------------------
Pair    | 53.907     | 61.712     | 69.935     |  43.7 | 12.60
Bond    | 0.70002    | 0.72893    | 0.77359    |   2.1 |  0.15
Kspace  | 322.16     | 329.07     | 337.28     |  19.6 | 67.16
Neigh   | 0.71151    | 0.74826    | 0.77139    |   1.9 |  0.15
Comm    | 33.309     | 35.166     | 39.481     |  23.9 |  7.18
Output  | 0.015451   | 0.016742   | 0.058381   |   5.4 |  0.00
Modify  | 29.393     | 43.328     | 61.203     | 203.5 |  8.84
Other   |            | 19.17      |            |       |  3.91

Nlocal:        166.667 ave         198 max         145 min
Histogram: 3 4 5 5 5 6 5 2 0 1
Nghost:        3442.94 ave        3524 max        3337 min
Histogram: 2 1 1 5 4 8 2 6 5 2
Neighs:        41112.4 ave       48536 max       34087 min
Histogram: 2 2 7 5 5 1 5 4 4 1

Total # of neighbors = 1480048
Ave neighs/atom = 246.67467
Ave special neighs/atom = 2
Neighbor list builds = 541
Dangerous builds = 0
PPPM initialization ...
  using 12-bit tables for long-range coulomb (../kspace.cpp:342)
  G vector (1/distance) = 0.27140242
  grid = 54 54 54
  stencil order = 5
  estimated absolute RMS force accuracy = 0.0003065045
  estimated relative force accuracy = 9.230292e-07
  using double precision KISS FFT
  3d grid and FFT values/proc = 13125 5832
Generated 1 of 1 mixed pair_coeff terms from arithmetic mixing rule
Setting up Verlet run ...
  Unit style    : real
  Current step  : 0
  Time step     : 0.5
Per MPI rank memory allocation (min/avg/max) = 8.162 | 8.299 | 9.027 Mbytes
   Step         PotEng         KinEng         TotEng         Press           Temp       c_theta_ave    c_length_ave    v_Density   
         0  -2179.9528      5381.8564      3201.9036      597.81926      300.96704      174.82175      1.1603228      0.84795968   
      1000  -2187.2343      5332.4726      3145.2383      373.55807      298.20538      174.8369       1.1604429      0.85033875   
      2000  -2295.4414      5429.7891      3134.3477     -283.44965      303.64756      174.80615      1.1610071      0.862364     
      3000  -2352.9294      5424.0684      3071.139       243.28903      303.32765      174.77321      1.1605263      0.87145971   
      4000  -2429.7412      5344.0874      2914.3462     -79.95772       298.8549       174.90241      1.1609077      0.87187579   
      5000  -2384.2258      5337.9331      2953.7074      527.95751      298.51074      174.97188      1.1602662      0.85541976   
      6000  -2289.2689      5336.429       3047.1602      245.53899      298.42663      174.92319      1.1605662      0.85222444   
      7000  -2312.4189      5291.1896      2978.7708      84.711405      295.89673      174.83297      1.160675       0.85580167   
      8000  -2334.9955      5400.2481      3065.2525      649.30719      301.99555      174.89056      1.1601729      0.85562608   
      9000  -2301.8819      5390.6889      3088.807       46.181134      301.46098      174.90828      1.160695       0.85690932   
     10000  -2270.6206      5374.9304      3104.3098     -7.3034288      300.57972      174.83941      1.1607159      0.85244912   
     11000  -2311.1709      5358.4925      3047.3215      324.31299      299.66047      174.89746      1.1604528      0.85298957   
     12000  -2369.4702      5421.0863      3051.6161      123.00682      303.16088      174.85571      1.160742       0.86997867   
     13000  -2368.2494      5400.3448      3032.0954      848.79279      302.00096      174.99089      1.1601548      0.8631707    
     14000  -2245.6969      5313.3966      3067.6996     -306.81332      297.1386       174.85455      1.1609013      0.8498458    
     15000  -2254.1991      5281.386       3027.1868      394.23279      295.34848      174.87224      1.1604448      0.85282668   
     16000  -2295.3992      5335.2794      3039.8803      18.913577      298.36234      174.96046      1.1608203      0.85926532   
     17000  -2251.7638      5406.224       3154.4602      365.15608      302.32974      174.86071      1.1604994      0.85171963   
     18000  -2268.0421      5393.6906      3125.6485      330.89428      301.62884      174.82868      1.1604894      0.84845118   
     19000  -2241.9703      5389.4684      3147.4982      189.99766      301.39273      174.88414      1.1605922      0.85331556   
     20000  -2303.4929      5369.2795      3065.7866     -41.217925      300.26371      174.85227      1.1608165      0.85349196   
     21000  -2402.0603      5447.3183      3045.2579     -68.867187      304.62784      174.80426      1.1608043      0.8591097    
     22000  -2322.7205      5361.5924      3038.8719      131.52486      299.83383      174.84481      1.1606328      0.85913046   
     23000  -2253.5813      5266.8815      3013.3002      136.57702      294.53736      174.8724       1.1606206      0.85490042   
     24000  -2191.943       5380.1012      3188.1581      236.05756      300.86889      174.76007      1.1604761      0.84121297   
     25000  -2282.9198      5415.4364      3132.5165     -120.3732       302.84492      174.92208      1.1608231      0.84068477   
     26000  -2311.7131      5404.319       3092.6058      344.49809      302.22321      174.90312      1.1604713      0.8484318    
     27000  -2334.6006      5340.6855      3006.0849      385.23639      298.66466      174.84537      1.1604215      0.86114189   
     28000  -2290.8785      5350.7507      3059.8722     -564.77817      299.22753      174.83922      1.1611858      0.8561268    
     29000  -2258.2498      5421.3095      3163.0597      1028.523       303.17336      174.86116      1.1599242      0.85390356   
     30000  -2399.1847      5435.5373      3036.3525     -211.26564      303.96901      174.96247      1.1609448      0.87088129   
     31000  -2338.2916      5305.9398      2967.6482      462.84718      296.72159      174.86861      1.1603511      0.87062627   
     32000  -2337.2298      5349.8258      3012.596       217.07361      299.17581      174.88515      1.1605343      0.86114001   
     33000  -2389.495       5435.6457      3046.1507     -200.33312      303.97508      174.89488      1.1609527      0.86136039   
     34000  -2273.5613      5416.2731      3142.7119      365.53249      302.89171      174.84849      1.1604624      0.85152304   
     35000  -2239.9681      5444.5089      3204.5408      84.834752      304.47073      174.87047      1.1606598      0.84775885   
     36000  -2254.2581      5478.5203      3224.2623      168.87664      306.37273      174.81933      1.1606595      0.84497245   
     37000  -2286.9753      5368.9373      3081.962       48.537398      300.24457      174.88412      1.1606548      0.83750512   
     38000  -2280.1288      5323.1642      3043.0354      253.69383      297.68483      174.84717      1.1605348      0.84845824   
     39000  -2370.0965      5468.031       3097.9345      265.38244      305.78615      174.93498      1.1605532      0.86274859   
     40000  -2303.0005      5402.5951      3099.5947      98.109629      302.1268       174.89589      1.1606824      0.86569469   
     41000  -2288.4654      5394.2994      3105.8341      371.3605       301.66289      174.80789      1.1604407      0.85538707   
     42000  -2257.0278      5473.6371      3216.6093      311.55635      306.09965      174.84217      1.1604747      0.85018689   
     43000  -2276.4946      5392.6334      3116.1387      123.56083      301.56972      174.85175      1.160611       0.85151801   
     44000  -2243.5352      5391.9538      3148.4185      340.26005      301.53171      174.85467      1.1604976      0.85856487   
     45000  -2359.9662      5363.988       3004.0217     -39.584347      299.96779      174.88344      1.1608286      0.86015769   
     46000  -2245.0567      5269.5965      3024.5398     -96.160677      294.68918      174.80722      1.160782       0.85104795   
     47000  -2246.4208      5242.8938      2996.473       82.787369      293.19591      174.88461      1.1606203      0.83845833   
     48000  -2261.9505      5276.3667      3014.4162      478.64187      295.06779      174.91201      1.1603633      0.84181063   
     49000  -2295.7823      5336.8251      3041.0429      100.21263      298.44878      174.80229      1.1606898      0.85690159   
     50000  -2441.7346      5481.027       3039.2924      475.77406      306.51292      174.91312      1.1603926      0.85828362   
     51000  -2326.4919      5375.1692      3048.6773      236.92426      300.59308      174.8107       1.1605561      0.85832487   
     52000  -2239.6559      5292.2968      3052.6409     -150.92737      295.95864      174.84887      1.1608937      0.85013793   
     53000  -2228.289       5358.3817      3130.0927      771.26215      299.65428      174.75679      1.1601817      0.8526728    
     54000  -2257.5871      5369.9102      3112.3231     -21.271306      300.29898      174.77185      1.1607358      0.86300565   
     55000  -2337.4577      5327.7433      2990.2857      327.67897      297.9409       174.75265      1.160477       0.87135053   
     56000  -2396.5808      5412.6698      3016.0891      53.843873      302.69021      174.88607      1.1607568      0.86537725   
     57000  -2259.5122      5402.6485      3143.1362      278.15172      302.12979      174.86498      1.1605395      0.8491619    
     58000  -2163.9111      5346.6783      3182.7673      371.80502      298.9998       174.74508      1.1604601      0.83918983   
     59000  -2288.166       5411.736       3123.57       -86.813332      302.63799      174.82376      1.1606799      0.83894591   
     60000  -2254.9028      5393.457       3138.5542      457.2247       301.61578      174.85715      1.1603796      0.85068928   
     61000  -2333.4331      5396.2427      3062.8096      210.78496      301.77156      174.7892       1.16064        0.8632846    
     62000  -2254.9041      5320.8226      3065.9185     -476.84485      297.55388      174.72177      1.1611389      0.87181574   
     63000  -2316.6776      5382.4422      3065.7646      416.21503      300.9998       174.92121      1.1604562      0.86242297   
     64000  -2335.9736      5257.6927      2921.7191     -236.83255      294.0235       174.87422      1.1609355      0.85971813   
     65000  -2376.7244      5385.3852      3008.6608      91.639677      301.16438      174.91359      1.1606906      0.86427941   
     66000  -2325.8627      5371.8848      3046.0221      338.6075       300.40941      174.9002       1.1604866      0.85909229   
     67000  -2327.453       5290.5343      2963.0814      292.84868      295.86008      174.82996      1.1605051      0.86283611   
     68000  -2345.7377      5356.5049      3010.7672     -272.57986      299.54932      174.79218      1.1609337      0.86113641   
     69000  -2306.1814      5323.9085      3017.7272      447.27085      297.72645      174.82921      1.1603408      0.85134147   
     70000  -2312.2148      5238.1306      2925.9157     -35.241163      292.92953      174.84688      1.16073        0.85494305   
     71000  -2322.0005      5301.892       2979.8916      360.10858      296.49523      174.84558      1.1604505      0.86511153   
     72000  -2394.3762      5388.8605      2994.4844      119.58189      301.35873      174.8656       1.1605926      0.86033253   
     73000  -2378.0435      5412.3287      3034.2853      299.56642      302.67113      174.8758       1.1604335      0.86068349   
     74000  -2402.6606      5354.3709      2951.7103      318.82929      299.42999      174.84827      1.1605141      0.87471643   
     75000  -2379.3868      5428.6905      3049.3037     -94.907608      303.58612      174.82757      1.1608184      0.87803905   
     76000  -2318.7272      5377.2931      3058.5659      263.62825      300.71185      174.82064      1.1605404      0.86844056   
     77000  -2365.284       5429.6969      3064.4129     -27.908268      303.64241      174.91811      1.1608218      0.86522136   
     78000  -2286.1335      5345.752       3059.6185      175.52597      298.948        174.80458      1.1606028      0.85710107   
     79000  -2278.7482      5357.6913      3078.9431      20.567702      299.61567      174.8247       1.1606725      0.84536714   
     80000  -2253.9574      5343.3464      3089.389       62.516277      298.81347      174.83762      1.1606478      0.84636014   
     81000  -2339.2398      5307.4139      2968.1741      58.161667      296.80403      174.80771      1.160704       0.85423315   
     82000  -2369.101       5308.864       2939.763       125.85992      296.88513      174.90768      1.1605943      0.85965495   
     83000  -2350.4313      5328.8611      2978.4299      446.19186      298.00341      174.82387      1.1603484      0.86198467   
     84000  -2374.179       5398.8018      3024.6228      404.80372      301.91468      174.90542      1.1605033      0.86897535   
     85000  -2295.0395      5380.7843      3085.7448      440.71686      300.90709      174.82778      1.1603782      0.85914935   
     86000  -2316.5717      5383.995       3067.4233     -18.650637      301.08664      174.83143      1.1607403      0.84897102   
     87000  -2227.2514      5451.7205      3224.4691      47.203261      304.87402      174.74253      1.1607562      0.84907286   
     88000  -2175.1503      5386.6134      3211.463       242.89624      301.23306      174.77763      1.1606745      0.85094841   
     89000  -2199.2857      5411.319       3212.0333     -70.175174      302.61466      174.79611      1.1607846      0.84532057   
     90000  -2295.2787      5379.9474      3084.6687      276.71877      300.86028      174.79391      1.1605245      0.85564515   
     91000  -2340.4986      5385.1014      3044.6029     -161.19134      301.14851      174.83107      1.1607727      0.86398014   
     92000  -2376.6237      5320.6373      2944.0136      333.48247      297.54352      174.7961       1.1604523      0.87402156   
     93000  -2440.786       5363.7097      2922.9237      82.327626      299.95223      174.86802      1.1606991      0.87285039   
     94000  -2456.2725      5318.1874      2861.9149      742.30821      297.40651      174.92223      1.1602066      0.86766051   
     95000  -2292.816       5375.0131      3082.1971      633.65031      300.58435      174.81943      1.1602758      0.86032028   
     96000  -2255.4583      5378.9679      3123.5097     -505.99549      300.80551      174.76798      1.1610681      0.85188047   
     97000  -2223.453       5343.2153      3119.7622      896.00369      298.80613      174.70002      1.160053       0.86151784   
     98000  -2304.9978      5450.8208      3145.823      -459.29615      304.82371      174.84257      1.1611661      0.86324793   
     99000  -2301.2583      5360.3337      3059.0754      691.96682      299.76344      174.75995      1.1601976      0.86365957   
    100000  -2350.6119      5245.2183      2894.6064     -114.11236      293.32589      174.78652      1.160762       0.87789109   
    101000  -2433.0759      5237.6931      2804.6172      16.049295      292.90506      174.83648      1.1606748      0.87479675   
    102000  -2356.9659      5390.0769      3033.111       83.549389      301.42675      174.87242      1.1606219      0.86410875   
[...]
  11423000   164181.99      296.07478      441.64023      5294.3735     -2505.8433      2788.5302      0.89022537     0              0              0              29.094145      29.094145      193.96096    
  11424000   164181.99      297.53683      838.19939      5320.5178     -2531.863       2788.6548      0.89022537     0              0              0              29.094145      29.094145      193.96096    
  11425000   164181.99      294.45815      231.2825       5265.4652     -2476.4519      2789.0133      0.89022537     0              0              0              29.094145      29.094145      193.96096    
  11426000   164181.99      294.1607       231.63172      5260.1461     -2471.1576      2788.9885      0.89022537     0              0              0              29.094145      29.094145      193.96096    
  11427000   164181.99      298.76844     -97.88821       5342.5412     -2553.9823      2788.5589      0.89022537     0              0              0              29.094145      29.094145      193.96096    
  11428000   164181.99      296.43797      286.65935      5300.868      -2512.2707      2788.5973      0.89022537     0              0              0              29.094145      29.094145      193.96096    
  11429000   164181.99      293.20493      15.743541      5243.0553     -2453.7128      2789.3425      0.89022537     0              0              0              29.094145      29.094145      193.96096    
  11430000   164181.99      294.27167      632.6164       5262.1305     -2473.0401      2789.0904      0.89022537     0              0              0              29.094145      29.094145      193.96096    
  11431000   164181.99      297.94113      510.15469      5327.7473     -2539.2067      2788.5407      0.89022537     0              0              0              29.094145      29.094145      193.96096    
  11432000   164181.99      294.50658     -437.46585      5266.3311     -2477.7476      2788.5835      0.89022537     0              0              0              29.094145      29.094145      193.96096    
  11433000   164181.99      295.5931      -318.27352      5285.7601     -2496.733       2789.0271      0.89022537     0              0              0              29.094145      29.094145      193.96096    
  11434000   164181.99      294.91469     -382.52706      5273.629      -2484.6036      2789.0254      0.89022537     0              0              0              29.094145      29.094145      193.96096    
  11435000   164181.99      296.96451      466.51081      5310.2835     -2521.7416      2788.542       0.89022537     0              0              0              29.094145      29.094145      193.96096    
  11436000   164181.99      298.24318      879.00676      5333.1486     -2544.5505      2788.598       0.89022537     0              0              0              29.094145      29.094145      193.96096    
  11437000   164181.99      298.39337      177.48614      5335.8344     -2547.1907      2788.6437      0.89022537     0              0              0              29.094145      29.094145      193.96096    
  11438000   164181.99      296.65608      55.722584      5304.7683     -2515.8261      2788.9421      0.89022537     0              0              0              29.094145      29.094145      193.96096    
  11439000   164181.99      297.87433     -691.33537      5326.5529     -2537.5665      2788.9864      0.89022537     0              0              0              29.094145      29.094145      193.96096    
  11440000   164181.99      297.95512      202.59789      5327.9976     -2539.2433      2788.7543      0.89022537     0              0              0              29.094145      29.094145      193.96096    
  11441000   164181.99      295.602        650.74422      5285.9194     -2497.152       2788.7674      0.89022537     0              0              0              29.094145      29.094145      193.96096    
  11442000   164181.99      300.34258      239.11465      5370.6898     -2581.8586      2788.8312      0.89022537     0              0              0              29.094145      29.094145      193.96096    
  11443000   164181.99      294.91855     -509.14388      5273.6979     -2484.6153      2789.0826      0.89022537     0              0              0              29.094145      29.094145      193.96096    
  11444000   164181.99      297.55581      692.67361      5320.8571     -2532.0911      2788.766       0.89022537     0              0              0              29.094145      29.094145      193.96096    
  11445000   164181.99      298.82867     -7.9277941      5343.6183     -2554.9444      2788.6739      0.89022537     0              0              0              29.094145      29.094145      193.96096    
  11446000   164181.99      296.42012     -31.971894      5300.5489     -2511.8947      2788.6542      0.89022537     0              0              0              29.094145      29.094145      193.96096    
  11447000   164181.99      292.51765      688.62911      5230.7654     -2441.8491      2788.9163      0.89022537     0              0              0              29.094145      29.094145      193.96096    
  11448000   164181.99      295.12608      389.51801      5277.409      -2488.6138      2788.7953      0.89022537     0              0              0              29.094145      29.094145      193.96096    
  11449000   164181.99      294.11915      270.84442      5259.4032     -2470.7708      2788.6324      0.89022537     0              0              0              29.094145      29.094145      193.96096    
  11450000   164181.99      298.31735      239.65476      5334.4749     -2545.8342      2788.6407      0.89022537     0              0              0              29.094145      29.094145      193.96096    
  11451000   164181.99      293.41555     -273.15364      5246.8215     -2457.9255      2788.896       0.89022537     0              0              0              29.094145      29.094145      193.96096    
  11452000   164181.99      294.2581       275.40244      5261.8879     -2473.1261      2788.7618      0.89022537     0              0              0              29.094145      29.094145      193.96096    
  11453000   164181.99      298.65622      700.87337      5340.5345     -2551.8473      2788.6871      0.89022537     0              0              0              29.094145      29.094145      193.96096    
  11454000   164181.99      295.51456     -143.57625      5284.3557     -2495.5804      2788.7753      0.89022537     0              0              0              29.094145      29.094145      193.96096    
  11455000   164181.99      296.4717      -247.33575      5301.4711     -2512.4171      2789.0541      0.89022537     0              0              0              29.094145      29.094145      193.96096    
  11456000   164181.99      298.46088     -226.52011      5337.0415     -2548.156       2788.8855      0.89022537     0              0              0              29.094145      29.094145      193.96096    
  11457000   164181.99      300.2971       327.94513      5369.8765     -2581.2378      2788.6387      0.89022537     0              0              0              29.094145      29.094145      193.96096    
  11458000   164181.99      294.23289      67.341475      5261.437      -2472.4418      2788.9952      0.89022537     0              0              0              29.094145      29.094145      193.96096    
  11459000   164181.99      292.46963      295.15811      5229.9067     -2440.6386      2789.2681      0.89022537     0              0              0              29.094145      29.094145      193.96096    
  11460000   164181.99      295.88707      487.03321      5291.0169     -2502.205       2788.8119      0.89022537     0              0              0              29.094145      29.094145      193.96096    
  11461000   164181.99      296.37558      801.8883       5299.7525     -2511.1519      2788.6006      0.89022537     0              0              0              29.094145      29.094145      193.96096    
  11462000   164181.99      295.40098      132.3824       5282.3247     -2493.3684      2788.9563      0.89022537     0              0              0              29.094145      29.094145      193.96096    
  11463000   164181.99      293.49026     -352.89696      5248.1574     -2459.0331      2789.1243      0.89022537     0              0              0              29.094145      29.094145      193.96096    
  11464000   164181.99      300.27849     -298.76413      5369.5438     -2580.945       2788.5988      0.89022537     0              0              0              29.094145      29.094145      193.96096    
  11465000   164181.99      298.85864     -266.89153      5344.1541     -2555.5328      2788.6213      0.89022537     0              0              0              29.094145      29.094145      193.96096    
  11466000   164181.99      297.20046     -628.29392      5314.5028     -2525.5177      2788.9851      0.89022537     0              0              0              29.094145      29.094145      193.96096    
  11467000   164181.99      294.42341     -636.39009      5264.844      -2475.7247      2789.1193      0.89022537     0              0              0              29.094145      29.094145      193.96096    
  11468000   164181.99      295.95728      278.04779      5292.2724     -2503.4506      2788.8219      0.89022537     0              0              0              29.094145      29.094145      193.96096    
  11469000   164181.99      296.79097      86.124063      5307.1803     -2518.4463      2788.734       0.89022537     0              0              0              29.094145      29.094145      193.96096    
  11470000   164181.99      297.0671       197.65098      5312.118      -2523.2255      2788.8926      0.89022537     0              0              0              29.094145      29.094145      193.96096    
  11471000   164181.99      292.01853      370.97739      5221.8401     -2432.6902      2789.1499      0.89022537     0              0              0              29.094145      29.094145      193.96096    
  11472000   164181.99      297.19284      715.8291       5314.3666     -2525.3248      2789.0417      0.89022537     0              0              0              29.094145      29.094145      193.96096    
  11473000   164181.99      296.93142      373.12203      5309.6918     -2520.8411      2788.8507      0.89022537     0              0              0              29.094145      29.094145      193.96096    
  11474000   164181.99      296.61576      172.88755      5304.0473     -2515.2481      2788.7993      0.89022537     0              0              0              29.094145      29.094145      193.96096    
  11475000   164181.99      298.61735     -280.82339      5339.8395     -2550.8845      2788.955       0.89022537     0              0              0              29.094145      29.094145      193.96096    
  11476000   164181.99      297.12075      111.44371      5313.0775     -2523.9821      2789.0954      0.89022537     0              0              0              29.094145      29.094145      193.96096    
  11477000   164181.99      296.07407      380.72167      5294.3609     -2505.4311      2788.9298      0.89022537     0              0              0              29.094145      29.094145      193.96096    
  11478000   164181.99      294.88203      218.33847      5273.0449     -2484.3765      2788.6684      0.89022537     0              0              0              29.094145      29.094145      193.96096    
  11479000   164181.99      296.26337      173.52813      5297.7458     -2509.0063      2788.7395      0.89022537     0              0              0              29.094145      29.094145      193.96096    
  11480000   164181.99      297.02456      267.8457       5311.3574     -2522.6612      2788.6962      0.89022537     0              0              0              29.094145      29.094145      193.96096    
  11481000   164181.99      298.57236      366.04324      5339.035      -2550.2636      2788.7714      0.89022537     0              0              0              29.094145      29.094145      193.96096    
  11482000   164181.99      296.93788      628.87856      5309.8074     -2520.8672      2788.9402      0.89022537     0              0              0              29.094145      29.094145      193.96096    
  11483000   164181.99      294.1961       684.75993      5260.7791     -2471.7763      2789.0028      0.89022537     0              0              0              29.094145      29.094145      193.96096    
  11484000   164181.99      298.12109      490.89836      5330.9653     -2541.958       2789.0073      0.89022537     0              0              0              29.094145      29.094145      193.96096    
  11485000   164181.99      296.43906      237.56224      5300.8875     -2511.9788      2788.9087      0.89022537     0              0              0              29.094145      29.094145      193.96096    
  11486000   164181.99      293.87413      404.6089       5255.0218     -2466.1462      2788.8756      0.89022537     0              0              0              29.094145      29.094145      193.96096    
  11487000   164181.99      297.78951      700.56447      5325.0361     -2536.2955      2788.7406      0.89022537     0              0              0              29.094145      29.094145      193.96096    
  11488000   164181.99      297.28003      700.71242      5315.9257     -2526.9006      2789.0251      0.89022537     0              0              0              29.094145      29.094145      193.96096    
  11489000   164181.99      298.82402     -323.96006      5343.5351     -2554.7916      2788.7435      0.89022537     0              0              0              29.094145      29.094145      193.96096    
  11490000   164181.99      297.65418      48.831412      5322.6162     -2533.8275      2788.7887      0.89022537     0              0              0              29.094145      29.094145      193.96096    
  11491000   164181.99      298.10901      386.94334      5330.7494     -2541.789       2788.9604      0.89022537     0              0              0              29.094145      29.094145      193.96096    
  11492000   164181.99      293.39535     -472.93447      5246.4602     -2457.273       2789.1872      0.89022537     0              0              0              29.094145      29.094145      193.96096    
  11493000   164181.99      294.88169      68.981052      5273.0389     -2483.9277      2789.1112      0.89022537     0              0              0              29.094145      29.094145      193.96096    
  11494000   164181.99      295.61146      571.25877      5286.0885     -2497.3847      2788.7039      0.89022537     0              0              0              29.094145      29.094145      193.96096    
  11495000   164181.99      296.07869      284.13485      5294.4434     -2505.8137      2788.6297      0.89022537     0              0              0              29.094145      29.094145      193.96096    
  11496000   164181.99      296.23253     -133.43743      5297.1943     -2508.1845      2789.0098      0.89022537     0              0              0              29.094145      29.094145      193.96096    
  11497000   164181.99      296.74846      461.28738      5306.4202     -2517.3471      2789.0732      0.89022537     0              0              0              29.094145      29.094145      193.96096    
  11498000   164181.99      301.43961      238.84959      5390.3068     -2601.6224      2788.6845      0.89022537     0              0              0              29.094145      29.094145      193.96096    
  11499000   164181.99      298.08369     -628.53293      5330.2966     -2541.3506      2788.946       0.89022537     0              0              0              29.094145      29.094145      193.96096    
  11500000   164181.99      294.11215      66.790523      5259.2781     -2470.2607      2789.0173      0.89022537     0              0              0              29.094145      29.094145      193.96096    
  11501000   164181.99      298.08767      554.23151      5330.3677     -2541.4254      2788.9423      0.89022537     0              0              0              29.094145      29.094145      193.96096    
  11502000   164181.99      295.93262     -157.8094       5291.8314     -2502.919       2788.9124      0.89022537     0              0              0              29.094145      29.094145      193.96096    
  11503000   164181.99      299.34185      795.16288      5352.7949     -2563.9576      2788.8373      0.89022537     0              0              0              29.094145      29.094145      193.96096    
  11504000   164181.99      292.72145      195.74984      5234.4098     -2445.3953      2789.0145      0.89022537     0              0              0              29.094145      29.094145      193.96096    
  11505000   164181.99      299.32643     -51.685454      5352.5192     -2563.7169      2788.8023      0.89022537     0              0              0              29.094145      29.094145      193.96096    
  11506000   164181.99      297.91466      568.29336      5327.2741     -2538.3042      2788.9699      0.89022537     0              0              0              29.094145      29.094145      193.96096    
  11507000   164181.99      299.08844      825.93516      5348.2634     -2559.354       2788.9094      0.89022537     0              0              0              29.094145      29.094145      193.96096    
  11508000   164181.99      296.08144     -23.611866      5294.4927     -2505.5394      2788.9533      0.89022537     0              0              0              29.094145      29.094145      193.96096    
  11509000   164181.99      296.90043     -230.19155      5309.1377     -2520.2578      2788.88        0.89022537     0              0              0              29.094145      29.094145      193.96096    
  11510000   164181.99      294.90001      299.65925      5273.3664     -2484.255       2789.1114      0.89022537     0              0              0              29.094145      29.094145      193.96096    
Loop time of 1848.96 on 36 procs for 500000 steps with 6000 atoms

Performance: 11.682 ns/day, 2.054 hours/ns, 270.422 timesteps/s, 1.623 Matom-step/s
99.3% CPU use with 36 MPI tasks x no OpenMP threads

MPI task timing breakdown:
Section |  min time  |  avg time  |  max time  |%varavg| %total
---------------------------------------------------------------
Pair    | 300.5      | 326.26     | 355.77     |  82.9 | 17.65
Bond    | 2.6247     | 2.7631     | 2.9567     |   6.1 |  0.15
Kspace  | 1250.3     | 1282.6     | 1313.8     |  45.8 | 69.37
Neigh   | 3.5112     | 3.6608     | 3.7861     |   4.5 |  0.20
Comm    | 194        | 210.03     | 222.45     |  46.7 | 11.36
Output  | 0.036897   | 0.044455   | 0.054399   |   1.9 |  0.00
Modify  | 0.8849     | 0.93851    | 1.0107     |   2.9 |  0.05
Other   |            | 22.63      |            |       |  1.22

Nlocal:        166.667 ave         191 max         144 min
Histogram: 2 0 4 7 8 6 1 6 1 1
Nghost:        4352.83 ave        4434 max        4264 min
Histogram: 1 2 4 6 4 6 2 3 7 1
Neighs:        43018.8 ave       50658 max       35262 min
Histogram: 2 0 4 7 6 4 7 2 3 1

Total # of neighbors = 1548677
Ave neighs/atom = 258.11283
Ave special neighs/atom = 2
Neighbor list builds = 2476
Dangerous builds = 0
System init for write_data ...
PPPM initialization ...
  using 12-bit tables for long-range coulomb (../kspace.cpp:342)
  G vector (1/distance) = 0.26824887
  grid = 32 32 128
  stencil order = 5
  estimated absolute RMS force accuracy = 0.00039915731
  estimated relative force accuracy = 1.2020504e-06
  using double precision KISS FFT
  3d grid and FFT values/proc = 14079 4096
Generated 1 of 1 mixed pair_coeff terms from arithmetic mixing rule
