units		    real
atom_style	    full
boundary        p p p
pair_style	    lj/cut/coul/long 12.0
pair_modify     mix arithmetic tail yes   # Geometric for EPM2
kspace_style    pppm 1e-6
bond_style      harmonic
angle_style     harmonic

read_data       ./data.lmp           # read the positions --------------comment it out for restarting
Reading data file ...
  orthogonal box = (0 0 0) to (55.912882 55.912882 55.912882)
  4 by 3 by 3 MPI processor grid
  reading atoms ...
  6000 atoms
  scanning bonds ...
  1 = max bonds/atom
  scanning angles ...
  1 = max angles/atom
  reading bonds ...
  4000 bonds
  reading angles ...
  2000 angles
Finding 1-2 1-3 1-4 neighbors ...
  special bond factors lj:    0        0        0       
  special bond factors coul:  0        0        0       
     2 = max # of 1-2 neighbors
     1 = max # of 1-3 neighbors
     1 = max # of 1-4 neighbors
     2 = max # of special neighbors
  special bonds CPU = 0.002 seconds
  read_data CPU = 0.575 seconds
#read_restart   2.restart

#----------------------------------------------------------------------------#
# FORCEFIELD - TraPPE Flexible model for CO2 (DOI- 10.1021/acs.jced.9b00006)
#----------------------------------------------------------------------------#

pair_coeff      1   1  0.1569891239   3.05             # [O]=C=O
pair_coeff      2   2  0.0536545107   2.8              # O=[C]=O

bond_coeff      1   1028.266  1.16

angle_coeff     1   55.96  180

mass            1   15.9994                       # O
mass            2   12.0107                       # C

set type        1   charge     -0.3500            # O
Setting atom values ...
  4000 settings made for charge
set type        2   charge     +0.7000            # C
Setting atom values ...
  2000 settings made for charge

#------------------------ VARIABLES------------------------------------------#

variable  TEMP_INDEX       equal 300  # in K
variable  PRESS_INDEX      equal 140  # in bar
variable  RandomSeed       equal 2000  # RANDOM SEED
variable  nz_layers        equal 20
variable  nx_layers        equal 3
variable  timestep         equal 0.5

variable  simulationTemp   equal ${TEMP_INDEX}
variable  simulationTemp   equal 300
variable  pressure         equal 0.987*${PRESS_INDEX}
variable  pressure         equal 0.987*140

variable  Ninptpre         equal 100000
variable  Ninpt            equal 1000000
variable  Npnpt            equal 2000000

variable  equi_run         equal 1000000           #500000
variable  npt_run          equal 10000000           #5000000
variable  NBR              equal ${npt_run}/100   # Block averaging for density (NPT)
variable  NBR              equal 10000000/100   

variable  Density          equal density
variable  Volume           equal vol

variable  dumpfreq         equal 1000
variable  thermofreq       equal 1000
variable  printfreq        equal 1000
variable  restartfreq      equal 1000000

variable  NVT_init         equal 500000
variable  NVE_reshape      equal 10000
variable  NVT_run_2        equal 500000
variable  NVE_cuboid       equal 500000

variable  thermo_num       equal 1000

#---------------------------- GROUPS/NEIGHBOUR - LIST -----------------------------------------------------------------------#

group           oxy  type 1
4000 atoms in group oxy
group           carb type 2
2000 atoms in group carb

neighbor	    3.0 bin
neigh_modify    every 1 delay 0 check yes
run_style       verlet

#---------------------------- CONGUGATE-GRADIENT MINIMIZATION --------------------------------------------------------#

#minimize energytolerance forcetolerance max_iterations_of_minimizer max_number_of_force_or_energy_evaluations
minimize        1e-6 1e-8 100000 10000000
PPPM initialization ...
  using 12-bit tables for long-range coulomb (../kspace.cpp:342)
  G vector (1/distance) = 0.2711386
  grid = 54 54 54
  stencil order = 5
  estimated absolute RMS force accuracy = 0.00031073065
  estimated relative force accuracy = 9.3575612e-07
  using double precision KISS FFT
  3d grid and FFT values/proc = 13125 5832
Generated 1 of 1 mixed pair_coeff terms from arithmetic mixing rule
Neighbor list info ...
  update: every = 1 steps, delay = 0 steps, check = yes
  max neighbors/atom: 2000, page size: 100000
  master list distance cutoff = 15
  ghost atom cutoff = 15
  binsize = 7.5, bins = 8 8 8
  1 neighbor lists, perpetual/occasional/extra = 1 0 0
  (1) pair lj/cut/coul/long, perpetual
      attributes: half, newton on
      pair build: half/bin/newton
      stencil: half/bin/3d
      bin: standard
Per MPI rank memory allocation (min/avg/max) = 9.071 | 9.171 | 9.266 Mbytes
   Step          Temp          E_pair         E_mol          TotEng         Press     
         0   0             -1991.5239      6.7006332e-05 -1991.5238      4671.8647    
      2731   0             -9723.8089      18.919154     -9704.8898     -268.85996    
Loop time of 32.804 on 36 procs for 2731 steps with 6000 atoms

99.2% CPU use with 36 MPI tasks x no OpenMP threads

Minimization stats:
  Stopping criterion = energy tolerance
  Energy initial, next-to-last, final = 
     -1991.52383942696   -9704.8839665378  -9704.88977107986
  Force two-norm initial, final = 440.89082 4.6884561
  Force max component initial, final = 16.949562 1.2397696
  Final line search alpha, max atom move = 0.052748857 0.065396431
  Iterations, force evaluations = 2731 5425

MPI task timing breakdown:
Section |  min time  |  avg time  |  max time  |%varavg| %total
---------------------------------------------------------------
Pair    | 1.9406     | 5.4954     | 11.963     | 100.3 | 16.75
Bond    | 0.023128   | 0.034953   | 0.055221   |   3.9 |  0.11
Kspace  | 18.74      | 25.319     | 29.004     |  47.9 | 77.18
Neigh   | 0.07472    | 0.076731   | 0.078739   |   0.4 |  0.23
Comm    | 1.3775     | 1.5631     | 1.777      |   8.8 |  4.77
Output  | 0          | 0          | 0          |   0.0 |  0.00
Modify  | 0          | 0          | 0          |   0.0 |  0.00
Other   |            | 0.3144     |            |       |  0.96

Nlocal:        166.667 ave         300 max          83 min
Histogram: 3 6 8 5 4 3 3 2 0 2
Nghost:        3570.14 ave        4484 max        3043 min
Histogram: 8 0 8 8 0 3 6 1 0 2
Neighs:        49670.4 ave      126236 max       11287 min
Histogram: 4 10 6 2 6 4 1 1 0 2

Total # of neighbors = 1788136
Ave neighs/atom = 298.02267
Ave special neighs/atom = 2
Neighbor list builds = 32
Dangerous builds = 0

#---------------------------- NPT simulations  ---------------------------------------------------------------------#

fix runnpt all npt temp ${simulationTemp} ${simulationTemp} 10 iso ${pressure} ${pressure} 100
fix runnpt all npt temp 300 ${simulationTemp} 10 iso ${pressure} ${pressure} 100
fix runnpt all npt temp 300 300 10 iso ${pressure} ${pressure} 100
fix runnpt all npt temp 300 300 10 iso 138.18 ${pressure} 100
fix runnpt all npt temp 300 300 10 iso 138.18 138.18 100

compute theta       all     angle/local   theta
compute length      all     bond/local    dist

compute theta_ave   all     reduce        ave       c_theta
compute length_ave  all     reduce        ave       c_length

thermo_style custom step pe ke etotal press temp c_theta_ave c_length_ave v_Density
thermo_modify flush yes
thermo ${thermo_num}
thermo 1000

velocity	    all create ${simulationTemp} ${RandomSeed} mom yes rot yes dist gaussian
velocity	    all create 300 ${RandomSeed} mom yes rot yes dist gaussian
velocity	    all create 300 2000 mom yes rot yes dist gaussian

#-----------------------
# Run (Pre-Initialization)
#-----------------------

timestep    0.1
run         ${Ninptpre}
run         100000
PPPM initialization ...
  using 12-bit tables for long-range coulomb (../kspace.cpp:342)
  G vector (1/distance) = 0.2711386
  grid = 54 54 54
  stencil order = 5
  estimated absolute RMS force accuracy = 0.00031073065
  estimated relative force accuracy = 9.3575612e-07
  using double precision KISS FFT
  3d grid and FFT values/proc = 13125 5832
Generated 1 of 1 mixed pair_coeff terms from arithmetic mixing rule
Per MPI rank memory allocation (min/avg/max) = 8.101 | 8.254 | 8.953 Mbytes
   Step         PotEng         KinEng         TotEng         Press           Temp       c_theta_ave    c_length_ave    v_Density   
      2731  -9704.8898      5364.5638     -4340.3259      1134.0559      300            179.41082      1.1608354      0.8361609    
      3000  -8770.0233      5560.0628     -3209.9605      668.95247      310.9328       178.34423      1.1618642      0.83091944   
      4000  -5615.3937      5962.9862      347.59256     -4.2196808      333.46529      176.49624      1.1613308      0.69478955   
      5000  -4013.4533      5343.0856      1329.6323      42.875514      298.79888      175.56008      1.1609099      0.64974925   
      6000  -3666.0697      5655.1331      1989.0634      602.3312       316.24937      175.14377      1.1603959      0.62384859   
      7000  -2670.4363      4985.3399      2314.9036      14.06926       278.79284      175.09884      1.1606729      0.60622811   
      8000  -2223.9313      4701.9431      2478.0119     -294.10597      262.94457      175.21234      1.1608302      0.59903843   
      9000  -2393.0359      5058.5802      2665.5443      15.489079      282.88862      175.08938      1.1607017      0.59578821   
     10000  -2602.9414      5359.8128      2756.8713      111.83441      299.73431      175.00119      1.1606514      0.58819236   
     11000  -3008.1101      5840.5899      2832.4798      330.17813      326.62058      174.98476      1.1606033      0.58873062   
     12000  -3087.5091      6038.9209      2951.4117      487.79504      337.71175      174.98076      1.1605334      0.58868056   
     13000  -2548.7656      5544.4548      2995.6892      171.51004      310.05996      174.92556      1.1606478      0.58808176   
     14000  -2076.6317      5102.0078      3025.3761     -0.55630122     285.3172       174.93882      1.1606379      0.59247111   
     15000  -1822.1267      4868.4419      3046.3151     -78.56698       272.2556       174.90398      1.1606402      0.5944229    
     16000  -1774.8481      4870.7847      3095.9366     -54.868331      272.38662      174.88709      1.1606801      0.59699517   
     17000  -2111.8354      5316.5657      3204.7303      141.67912      297.31582      174.81805      1.1606041      0.59213277   
     18000  -2505.4071      5777.3292      3271.9221      184.92928      323.08289      174.73215      1.1607319      0.59680513   
     19000  -2736.5979      5855.6928      3119.0949      565.14229      327.46518      174.84281      1.1604027      0.60738377   
     20000  -2407.5589      5644.2054      3236.6465      360.42047      315.63826      174.73417      1.1605278      0.60372067   
     21000  -1976.4902      5197.0717      3220.5816     -481.00838      290.63342      174.73169      1.1612814      0.60615339   
     22000  -1600.4868      4890.8767      3290.3899      422.58786      273.51021      174.77439      1.1600957      0.60503802   
     23000  -1655.8852      4918.3795      3262.4943     -112.91892      275.04824      174.78396      1.1606823      0.61153101   
     24000  -2033.1993      5251.2441      3218.0448     -51.963995      293.66287      174.79788      1.1608125      0.61930632   
     25000  -2395.1486      5638.1342      3242.9856      395.94344      315.29875      174.80038      1.1604585      0.62285038   
     26000  -2644.253       5817.3472      3173.0942      277.74545      325.32079      174.79901      1.160669       0.63116826   
     27000  -2457.6017      5640.2014      3182.5997      212.41989      315.41435      174.83303      1.1607005      0.63641245   
     28000  -2093.1925      5310.7071      3217.5146      308.71902      296.98819      174.7517       1.1604278      0.63337721   
     29000  -1786.826       5046.1634      3259.3374     -182.71698      282.19424      174.79981      1.160835       0.63547905   
     30000  -1670.875       4913.2565      3242.3815     -101.48794      274.76175      174.79306      1.1608102      0.6438191    
     31000  -1924.3901      5177.8319      3253.4418      480.68974      289.55748      174.80233      1.1601256      0.64208745   
     32000  -2313.1343      5485.089       3171.9546     -209.27824      306.74007      174.74768      1.1610053      0.64719546   
     33000  -2478.3581      5766.5353      3288.1772      427.22509      322.47926      174.76165      1.1605025      0.65327977   
     34000  -2429.5202      5672.8613      3243.3411      439.11745      317.24077      174.80384      1.1603948      0.65588715   
     35000  -2147.7044      5413.7531      3266.0487     -129.13476      302.75079      174.85703      1.1609299      0.66396479   
     36000  -1810.4226      5151.7136      3341.291       183.998        288.09687      174.76709      1.160501       0.66586766   
     37000  -1670.8877      5000.1107      3329.223       44.931806      279.61886      174.79788      1.1605083      0.66779643   
     38000  -1908.5127      5094.735       3186.2224     -325.34359      284.91049      174.77696      1.1609879      0.67719405   
     39000  -2212.2731      5391.5168      3179.2437      529.23332      301.50728      174.82199      1.1602616      0.67601068   
     40000  -2399.9826      5675.4085      3275.4259      375.64878      317.38322      174.73149      1.1606075      0.68259474   
     41000  -2352.5029      5713.3337      3360.8308     -151.48007      319.50409      174.72877      1.1610446      0.68136338   
     42000  -2061.9861      5458.9281      3396.9421      565.38137      305.27709      174.72278      1.1601929      0.67877656   
     43000  -1820.8109      5192.4318      3371.6209     -46.075876      290.37394      174.70394      1.1607393      0.68441065   
     44000  -1673.3893      5105.4942      3432.1049     -186.00897      285.51217      174.70587      1.1608017      0.69057586   
     45000  -1820.4877      5105.8875      3285.3999      259.60265      285.53417      174.71935      1.1604025      0.70114217   
     46000  -2143.85        5395.6042      3251.7542      7.5831976      301.73585      174.76309      1.1607561      0.70887547   
     47000  -2344.521       5630.1734      3285.6524      183.19171      314.85356      174.75725      1.1606723      0.71253554   
     48000  -2431.3808      5671.9904      3240.6096      646.62177      317.19207      174.78577      1.160271       0.71753604   
     49000  -2315.9387      5550.4529      3234.5143     -264.51228      310.39539      174.80378      1.1610457      0.72381947   
     50000  -2013.1314      5276.6599      3263.5285      170.96474      295.08419      174.66862      1.1605928      0.73344729   
     51000  -1819.0884      5140.0298      3320.9414      376.71938      287.44349      174.69479      1.1602937      0.73508239   
     52000  -1905.3057      5078.4477      3173.142      -330.63048      283.99966      174.778        1.160876       0.73203089   
     53000  -2153.6656      5322.2093      3168.5437      236.13059      297.63143      174.78579      1.1605333      0.7397669    
     54000  -2287.0778      5540.4841      3253.4063      322.71985      309.83791      174.75766      1.160488       0.73261836   
     55000  -2332.1818      5701.7831      3369.6013     -52.458745      318.85816      174.76878      1.1609054      0.73057698   
     56000  -2349.6517      5647.9069      3298.2552      796.58161      315.84526      174.7424       1.1601818      0.74491194   
     57000  -2092.2828      5261.7874      3169.5045      202.20676      294.25248      174.73385      1.1605495      0.74702704   
     58000  -1835.911       5096.8284      3260.9173     -532.84684      285.02755      174.6741       1.1610783      0.74475074   
     59000  -1865.2661      5175.2626      3309.9965      437.62673      289.41379      174.7643       1.1602955      0.75551811   
     60000  -1976.8688      5255.7048      3278.836      -41.276594      293.91232      174.7325       1.16075        0.75877581   
     61000  -2310.9652      5479.7878      3168.8226     -21.988934      306.44362      174.78668      1.1607517      0.75897968   
     62000  -2450.7117      5631.2455      3180.5338      635.6708       314.91351      174.72458      1.1603295      0.76597603   
     63000  -2424.7802      5591.6036      3166.8233     -53.253283      312.69664      174.76141      1.160893       0.77408173   
     64000  -2320.5198      5380.3452      3059.8254     -119.12769      300.88253      174.72111      1.160878       0.78335711   
     65000  -2091.8779      5195.4851      3103.6072      615.51031      290.54469      174.81802      1.1600966      0.78646471   
     66000  -1984.5125      5112.5701      3128.0576     -333.47171      285.90787      174.78979      1.1609007      0.78546299   
     67000  -2171.3403      5122.8281      2951.4878      8.4469073      286.48152      174.83739      1.1606618      0.78913863   
     68000  -2353.3884      5407.749       3054.3605      455.7504       302.41502      174.8361       1.1603857      0.79119803   
     69000  -2507.4988      5546.4014      3038.9026     -142.723        310.16882      174.79189      1.1609075      0.79068344   
     70000  -2508.3881      5513.1304      3004.7424      462.53603      308.30822      174.8257       1.1604571      0.79932833   
     71000  -2246.8578      5411.6445      3164.7866      713.18228      302.63287      174.75551      1.1601816      0.79385068   
     72000  -2022.8359      5237.0504      3214.2145     -483.65407      292.86912      174.73473      1.1610393      0.7864141    
     73000  -1893.2368      5098.7716      3205.5349      196.55233      285.13623      174.74968      1.1604745      0.79482226   
     74000  -1975.9803      5165.8604      3189.8801      164.64057      288.888        174.78896      1.1605041      0.79637696   
     75000  -2187.4942      5432.0576      3244.5635     -181.29779      303.77442      174.71217      1.1609095      0.8002125    
     76000  -2376.597       5531.2168      3154.6198      654.21159      309.31965      174.7848       1.1602649      0.80672707   
     77000  -2405.3448      5585.0498      3179.705       284.47248      312.33013      174.81902      1.1605777      0.80764401   
     78000  -2331.2936      5459.5704      3128.2768     -674.62899      305.313        174.84859      1.1613249      0.81290713   
     79000  -2160.413       5408.8278      3248.4148      859.79659      302.47535      174.79881      1.1600324      0.8224319    
     80000  -2007.4264      5210.9034      3203.477      -168.37582      291.40692      174.81384      1.1607567      0.81787665   
     81000  -2020.4317      5173.0956      3152.6639     -241.92555      289.29261      174.80087      1.1608601      0.82218436   
     82000  -2266.1339      5346.137       3080.0031      442.1657       298.96952      174.7963       1.1603732      0.82788118   
     83000  -2424.5179      5536.9948      3112.4769      49.484925      309.64277      174.80176      1.1607376      0.82662142   
     84000  -2412.6208      5601.9654      3189.3445      151.4307       313.27609      174.8067       1.1606682      0.82752232   
     85000  -2409.373       5475.4808      3066.1078      426.75815      306.20276      174.79346      1.1604517      0.83885473   
     86000  -2149.8156      5299.1759      3149.3604      26.027097      296.34334      174.71224      1.1606531      0.82985292   
     87000  -2012.2462      5069.1257      3056.8794      18.395193      283.47835      174.75388      1.1606027      0.82933463   
     88000  -2113.4148      5100.71        2987.2952      122.61259      285.24462      174.7881       1.1605401      0.83619171   
     89000  -2271.1705      5253.816       2982.6455      81.16745       293.8067       174.8132       1.160635       0.84106669   
     90000  -2425.6014      5373.2395      2947.6381      173.15159      300.48517      174.80858      1.1606327      0.84429183   
     91000  -2482.9655      5603.2238      3120.2583      282.78423      313.34647      174.76941      1.1605594      0.8420877    
     92000  -2464.3184      5598.3415      3134.023       203.09632      313.07344      174.73941      1.1606728      0.84727264   
     93000  -2351.9758      5383.2487      3031.2729      113.97337      301.04491      174.81129      1.1606354      0.84691432   
     94000  -2250.9545      5232.3685      2981.414       86.832403      292.6073       174.85301      1.1606116      0.84805628   
     95000  -2179.4023      5189.2271      3009.8248      30.446839      290.19473      174.8161       1.1606961      0.85799055   
     96000  -2219.0819      5180.6173      2961.5354      70.617161      289.71324      174.81684      1.1605528      0.8482345    
     97000  -2497.5397      5407.3656      2909.8259      206.1959       302.39358      174.85668      1.1606141      0.8625655    
     98000  -2581.6811      5499.5386      2917.8575      192.54696      307.54813      174.85554      1.1606397      0.85750135   
     99000  -2534.2232      5475.7932      2941.57        256.76502      306.22023      174.83772      1.1605377      0.85382231   
    100000  -2449.0212      5397.2522      2948.231       129.47886      301.82802      174.849        1.1606886      0.86627282   
    101000  -2349.5072      5311.1285      2961.6213      54.804596      297.01176      174.89247      1.1606548      0.86667261   
    102000  -2248.5055      5202.9391      2954.4337      238.54741      290.96154      174.79676      1.1604499      0.86489267   
    102731  -2461.9078      5426.1063      2964.1984      19.260253      303.44161      174.87023      1.1607671      0.87205064   
Loop time of 584.328 on 36 procs for 100000 steps with 6000 atoms

Performance: 1.479 ns/day, 16.231 hours/ns, 171.137 timesteps/s, 1.027 Matom-step/s
99.2% CPU use with 36 MPI tasks x no OpenMP threads

MPI task timing breakdown:
Section |  min time  |  avg time  |  max time  |%varavg| %total
---------------------------------------------------------------
Pair    | 20.635     | 57.617     | 114.62     | 316.7 |  9.86
Bond    | 0.46032    | 0.73188    | 1.0747     |  17.5 |  0.13
Kspace  | 361.84     | 420.59     | 460.03     | 122.3 | 71.98
Neigh   | 0.24209    | 0.25034    | 0.259      |   0.9 |  0.04
Comm    | 24.317     | 28.048     | 31.695     |  38.1 |  4.80
Output  | 0.014497   | 0.015891   | 0.062496   |   6.2 |  0.00
Modify  | 32.916     | 53.391     | 75.954     | 220.8 |  9.14
Other   |            | 23.68      |            |       |  4.05

Nlocal:        166.667 ave         204 max         135 min
Histogram: 3 2 6 3 6 6 4 2 3 1
Nghost:        3501.81 ave        3645 max        3381 min
Histogram: 6 1 2 5 5 6 4 5 1 1
Neighs:        42290.8 ave       58559 max       30119 min
Histogram: 3 3 6 6 5 4 2 4 2 1

Total # of neighbors = 1522470
Ave neighs/atom = 253.745
Ave special neighs/atom = 2
Neighbor list builds = 126
Dangerous builds = 0

timestep    0.2
run         ${Ninptpre}
run         100000
PPPM initialization ...
  using 12-bit tables for long-range coulomb (../kspace.cpp:342)
  G vector (1/distance) = 0.26748507
  grid = 50 50 50
  stencil order = 5
  estimated absolute RMS force accuracy = 0.00042038168
  estimated relative force accuracy = 1.2659669e-06
  using double precision KISS FFT
  3d grid and FFT values/proc = 12500 5000
Generated 1 of 1 mixed pair_coeff terms from arithmetic mixing rule
Per MPI rank memory allocation (min/avg/max) = 7.976 | 8.157 | 8.727 Mbytes
   Step         PotEng         KinEng         TotEng         Press           Temp       c_theta_ave    c_length_ave    v_Density   
    102731  -2461.9125      5426.1063      2964.1937      19.254719      303.44161      174.87023      1.1607671      0.87205064   
    103000  -2265.5984      5229.4992      2963.9008      251.65532      292.44684      174.84363      1.1604824      0.87078877   
    104000  -2410.7165      5362.1911      2951.4747      271.78312      299.86731      174.8455       1.1604354      0.86597922   
    105000  -2316.9382      5589.5581      3272.6199     -595.11106      312.58225      174.78218      1.1612288      0.84764336   
    106000  -2268.6927      5365.6695      3096.9768      217.4416       300.06183      174.811        1.160581       0.85431818   
    107000  -2228.3233      5265.6289      3037.3056      347.89538      294.46731      174.84448      1.1603793      0.85687819   
    108000  -2449.8657      5451.4286      3001.5628     -103.19373      304.8577       174.87947      1.1608878      0.86800262   
    109000  -2425.0591      5495.1984      3070.1393      8.4705446      307.30542      174.80634      1.1607206      0.8555487    
    110000  -2255.7811      5181.9045      2926.1233      351.58585      289.78522      174.92063      1.1603593      0.8536911    
    111000  -2235.6182      5275.029       3039.4107      86.550457      294.99298      174.83817      1.1606223      0.85785042   
    112000  -2424.9389      5512.025       3087.0861     -419.34895      308.2464       174.73258      1.1611598      0.86897306   
    113000  -2383.5265      5413.2349      3029.7084      343.48409      302.72181      174.80629      1.1604741      0.86322642   
    114000  -2331.9171      5250.9385      2919.0215      223.69072      293.64578      174.86948      1.1604889      0.86804023   
    115000  -2382.7077      5436.1959      3053.4881     -321.95885      304.00584      174.81821      1.1609923      0.86082015   
    116000  -2552.5745      5426.7286      2874.1542      112.38447      303.47641      174.79581      1.1606433      0.86056974   
    117000  -2261.4383      5307.0049      3045.5666      469.02036      296.78116      174.77453      1.1603823      0.8668734    
    118000  -2233.2593      5365.0127      3131.7535      61.348683      300.0251       174.75602      1.1606848      0.86412072   
    119000  -2456.5438      5450.6916      2994.1478      58.58196       304.81648      174.7103       1.1606441      0.86859035   
    120000  -2370.9373      5425.8876      3054.9504      478.66223      303.42938      174.71089      1.1603905      0.86303814   
    121000  -2317.6934      5302.9719      2985.2785      353.05107      296.55562      174.89222      1.1604495      0.86184467   
    122000  -2414.0695      5401.6844      2987.6149     -375.34613      302.07588      174.87044      1.1610103      0.86225777   
    123000  -2419.0722      5497.4521      3078.38        209.56755      307.43145      174.78343      1.160575       0.86085419   
    124000  -2153.9303      5344.0274      3190.0971      613.852        298.85155      174.80495      1.1601975      0.84404768   
    125000  -2238.7951      5320.6442      3081.8491     -659.58114      297.5439       174.77526      1.1612978      0.85761064   
    126000  -2379.5758      5378.0725      2998.4967     -130.09255      300.75544      174.77616      1.1607737      0.85143577   
    127000  -2326.5554      5336.7509      3010.1954      534.89945      298.44463      174.81999      1.1602861      0.84964144   
    128000  -2187.1403      5305.1142      3117.9738      68.412513      296.67542      174.85576      1.1605442      0.83956742   
    129000  -2235.9231      5338.9908      3103.0677     -36.053344      298.56989      174.82854      1.1607198      0.84242155   
    130000  -2238.8126      5472.7289      3233.9163      300.70035      306.04887      174.71176      1.1605081      0.83811195   
    131000  -2100.694       5324.3775      3223.6835      428.92122      297.75267      174.67088      1.160368       0.83992678   
    132000  -2153.685       5325.0983      3171.4133     -542.76551      297.79299      174.83078      1.1611438      0.84004998   
    133000  -2347.0846      5310.063       2962.9784     -26.659155      296.95217      174.84441      1.16072        0.8458033    
    134000  -2338.3146      5392.0904      3053.7758      554.39762      301.53935      174.73332      1.1602944      0.85347469   
    135000  -2199.286       5224.3839      3025.0978     -80.584096      292.16078      174.75538      1.1606901      0.84764657   
    136000  -2358.6668      5330.0156      2971.3488     -459.63222      298.06798      174.85437      1.1610486      0.85904163   
    137000  -2475.5577      5421.6344      2946.0766      586.56154      303.19153      174.85123      1.1603421      0.86162474   
    138000  -2371.6453      5262.8005      2891.1551      365.48801      294.30913      174.86953      1.1604781      0.86430622   
    139000  -2270.0436      5276.3619      3006.3183     -112.34849      295.06752      174.85686      1.1607715      0.85168095   
    140000  -2385.5048      5386.1701      3000.6652      166.44054      301.20828      174.84235      1.1606161      0.84872529   
    141000  -2441.7819      5385.8482      2944.0663      855.38827      301.19027      174.80828      1.1601502      0.86368364   
    142000  -2291.5186      5208.3764      2916.8579     -164.48918      291.2656       174.81448      1.1608265      0.86162694   
    143000  -2383.4266      5265.4979      2882.0712      0.29556353     294.45998      174.81442      1.1607019      0.86026447   
    144000  -2378.6224      5287.5621      2908.9396      490.67617      295.69387      174.86918      1.1603154      0.86059248   
    145000  -2336.8008      5370.7288      3033.928       287.57439      300.34476      174.84771      1.160442       0.85765639   
    146000  -2274.4608      5190.8866      2916.4258     -269.8519       290.28753      174.82423      1.1608569      0.8638071    
    147000  -2472.8944      5424.1489      2951.2546      355.26722      303.33215      174.87273      1.1604818      0.87241387   
    148000  -2283.1717      5462.7613      3179.5896      758.00453      305.49145      174.73914      1.1601179      0.85999667   
    149000  -2277.5146      5366.7787      3089.264      -195.11627      300.12386      174.75671      1.1608337      0.86147339   
    150000  -2298.2451      5275.3163      2977.0712     -89.511805      295.00905      174.86283      1.1607097      0.86392435   
    151000  -2388.0273      5366.9917      2978.9644      885.53682      300.13577      174.87891      1.1600607      0.86336497   
    152000  -2380.6357      5342.5837      2961.948      -23.66627       298.77081      174.84346      1.1607196      0.86751122   
    153000  -2281.6459      5294.8807      3013.2348     -77.156599      296.10314      174.78005      1.1607443      0.86550506   
    154000  -2371.1278      5388.9875      3017.8598      245.41514      301.36583      174.82827      1.1605589      0.87039122   
    155000  -2459.9779      5426.0986      2966.1207      274.46837      303.44118      174.88897      1.1605032      0.873948     
    156000  -2376.066       5326.4419      2950.3758     -422.14063      297.86812      174.82391      1.160966       0.8715931    
    157000  -2379.1734      5345.3172      2966.1438      296.85465      298.92368      174.84335      1.1605243      0.87909375   
    158000  -2370.5941      5448.898       3078.3039      543.52408      304.71618      174.82504      1.1603253      0.87085984   
    159000  -2400.5272      5417.3111      3016.7839     -64.982455      302.94976      174.79169      1.1608767      0.87616977   
    160000  -2191.966       5280.3775      3088.4115     -102.03575      295.29209      174.7623       1.1607821      0.85808584   
    161000  -2278.7427      5400.601       3121.8583      917.85252      302.01529      174.86475      1.1599855      0.86136402   
    162000  -2247.2684      5482.548       3235.2796      111.54769      306.59797      174.80646      1.1606587      0.8583422    
    163000  -2265.1511      5390.0752      3124.9242     -187.09748      301.42666      174.7639       1.1608376      0.85047753   
    164000  -2110.7606      5326.0566      3215.296       491.75557      297.84658      174.78624      1.1603347      0.84152203   
    165000  -2128.8879      5348.3398      3219.4519      594.62239      299.09271      174.69296      1.1602813      0.84628873   
    166000  -2281.9223      5367.8548      3085.9325     -292.73617      300.18404      174.76075      1.1609368      0.85106051   
    167000  -2279.4908      5256.0939      2976.603       139.10189      293.93408      174.76229      1.1605515      0.84968722   
    168000  -2345.3871      5267.0467      2921.6596      338.4262       294.54659      174.86812      1.1604248      0.86116816   
    169000  -2285.9683      5257.169       2971.2008      90.765623      293.99421      174.76998      1.1606126      0.85448698   
    170000  -2308.2333      5376.2069      3067.9736      74.656324      300.65111      174.79892      1.1606082      0.86062633   
    171000  -2268.5337      5254.1793      2985.6456      156.66979      293.82702      174.74229      1.1605388      0.86713982   
    172000  -2382.1689      5334.5245      2952.3556      201.15165      298.32012      174.78799      1.1605539      0.86397852   
    173000  -2359.3239      5386.9371      3027.6132      13.864049      301.25117      174.79766      1.1607329      0.86773937   
    174000  -2229.1293      5339.5521      3110.4228      154.45834      298.60128      174.7556       1.160593       0.86128341   
    175000  -2182.8116      5447.7703      3264.9588      619.49311      304.65312      174.77291      1.1602641      0.85050441   
    176000  -2287.1728      5378.9215      3091.7488     -41.345792      300.80292      174.82355      1.1608182      0.85800398   
    177000  -2154.865       5410.5162      3255.6511     -95.008656      302.56977      174.78994      1.1608062      0.83979959   
    178000  -2137.5404      5338.4108      3200.8704      751.90875      298.53745      174.785        1.1601731      0.84737739   
    179000  -2113.2223      5303.9161      3190.6938      292.81092      296.60842      174.82313      1.1604441      0.83500769   
    180000  -2273.3063      5388.1577      3114.8514     -273.14282      301.31943      174.8269       1.1610408      0.85361203   
    181000  -2176.6401      5357.2111      3180.571       186.58473      299.58882      174.79873      1.1605617      0.85356878   
    182000  -2281.9338      5364.0708      3082.137       311.60365      299.97243      174.73051      1.1605526      0.86981982   
    183000  -2299.5789      5491.3703      3191.7914      77.160387      307.09134      174.78124      1.1607234      0.86542034   
    184000  -2393.4556      5403.6263      3010.1707     -62.507208      302.18447      174.78907      1.1607525      0.87369286   
    185000  -2350.3654      5326.1282      2975.7627      687.85979      297.85058      174.80351      1.1602138      0.8739513    
    186000  -2434.8619      5439.0261      3004.1643      168.1335       304.16412      174.85076      1.1606513      0.8775392    
    187000  -2342.6158      5437.5067      3094.8909     -141.02194      304.07915      174.87449      1.1608498      0.86426628   
    188000  -2287.2136      5377.9405      3090.727       255.51784      300.74806      174.81511      1.1604948      0.86065839   
    189000  -2340.454       5238.692       2898.238       668.07123      292.96093      174.78111      1.1601166      0.86056472   
    190000  -2234.3634      5391.6121      3157.2487     -288.82872      301.51261      174.85062      1.1609453      0.85056681   
    191000  -2223.7995      5284.7344      3060.9349      43.770597      295.53573      174.78278      1.1606302      0.85086314   
    192000  -2170.9332      5352.318       3181.3847      900.00563      299.31518      174.72508      1.1599603      0.8506566    
    193000  -2222.9272      5413.7052      3190.778      -84.266421      302.74811      174.80834      1.1607103      0.85326146   
    194000  -2328.1738      5346.3439      3018.1701     -109.1809       298.9811       174.82023      1.1607493      0.86735893   
    195000  -2333.2093      5414.8919      3081.6826      257.10816      302.81447      174.86153      1.160485       0.87083377   
    196000  -2462.825       5333.0208      2870.1958      298.06763      298.23603      174.80366      1.1604761      0.88571355   
    197000  -2426.2351      5463.436       3037.201      -367.2722       305.52918      174.81767      1.1610531      0.88186951   
    198000  -2478.1418      5369.0256      2890.8838      358.55328      300.24951      174.91715      1.160479       0.87769427   
    199000  -2350.1724      5230.0013      2879.8289      698.10204      292.47492      174.85616      1.1601527      0.8744369    
    200000  -2336.829       5360.6496      3023.8206     -137.05314      299.78111      174.78878      1.160817       0.86524368   
    201000  -2294.1478      5392.97        3098.8222     -172.12757      301.58855      174.78864      1.1609336      0.86785507   
    202000  -2235.0353      5469.6573      3234.622       1024.1714      305.87709      174.8081       1.1599849      0.86476155   
    202731  -2305.9874      5378.2487      3072.2613     -17.866878      300.76529      174.8224       1.160797       0.86123462   
Loop time of 475.017 on 36 procs for 100000 steps with 6000 atoms

Performance: 3.638 ns/day, 6.597 hours/ns, 210.519 timesteps/s, 1.263 Matom-step/s
99.2% CPU use with 36 MPI tasks x no OpenMP threads

MPI task timing breakdown:
Section |  min time  |  avg time  |  max time  |%varavg| %total
---------------------------------------------------------------
Pair    | 46.062     | 62.465     | 75.664     |  92.0 | 13.15
Bond    | 0.65105    | 0.73003    | 0.84144    |   4.5 |  0.15
Kspace  | 301.74     | 316.13     | 332.3      |  42.8 | 66.55
Neigh   | 0.2995     | 0.30744    | 0.31963    |   1.4 |  0.06
Comm    | 30.255     | 33.112     | 35.896     |  32.2 |  6.97
Output  | 0.01446    | 0.015845   | 0.062481   |   6.3 |  0.00
Modify  | 27.961     | 42.979     | 61.109     | 203.8 |  9.05
Other   |            | 19.28      |            |       |  4.06

Nlocal:        166.667 ave         186 max         141 min
Histogram: 2 3 0 3 6 3 8 3 5 3
Nghost:        3479.78 ave        3575 max        3400 min
Histogram: 1 2 8 6 8 3 1 3 2 2
Neighs:        41680.8 ave       52408 max       32726 min
Histogram: 4 3 2 3 9 7 2 3 2 1

Total # of neighbors = 1500507
Ave neighs/atom = 250.0845
Ave special neighs/atom = 2
Neighbor list builds = 216
Dangerous builds = 0

timestep    0.25
run         ${Ninptpre}
run         100000
PPPM initialization ...
  using 12-bit tables for long-range coulomb (../kspace.cpp:342)
  G vector (1/distance) = 0.26725562
  grid = 50 50 50
  stencil order = 5
  estimated absolute RMS force accuracy = 0.00042545265
  estimated relative force accuracy = 1.281238e-06
  using double precision KISS FFT
  3d grid and FFT values/proc = 12500 5000
Generated 1 of 1 mixed pair_coeff terms from arithmetic mixing rule
Per MPI rank memory allocation (min/avg/max) = 7.977 | 8.157 | 8.727 Mbytes
   Step         PotEng         KinEng         TotEng         Press           Temp       c_theta_ave    c_length_ave    v_Density   
    202731  -2305.9876      5378.2487      3072.2611     -17.867137      300.76529      174.8224       1.160797       0.86123462   
    203000  -2267.1473      5361.8003      3094.653      -260.29258      299.84546      174.85364      1.1608593      0.85530726   
    204000  -2277.7612      5334.9216      3057.1604     -576.96017      298.34233      174.84973      1.1611928      0.85670828   
    205000  -2214.42        5340.4359      3126.0159     -223.81167      298.6507       174.83947      1.1608794      0.84289148   
    206000  -2064.663       5266.1273      3201.4643      161.36058      294.49518      174.73893      1.1605645      0.83898972   
    207000  -2181.1081      5346.4456      3165.3374      576.55946      298.98678      174.75529      1.1602213      0.83419751   
    208000  -2292.1089      5365.254       3073.1451      591.50856      300.0386       174.84201      1.1602759      0.85290577   
    209000  -2208.3454      5383.0559      3174.7105      276.7961       301.03412      174.8334       1.1604491      0.84214122   
    210000  -2144.5342      5317.4007      3172.8665      178.67535      297.36252      174.75307      1.1605861      0.84274677   
    211000  -2226.1582      5321.7128      3095.5546     -18.897656      297.60366      174.82284      1.1607482      0.85312489   
    212000  -2242.8941      5289.7482      3046.8541     -269.81321      295.81612      174.90452      1.1608137      0.84482129   
    213000  -2219.7135      5302.3708      3082.6573     -253.64774      296.52201      174.7648       1.1609426      0.8463322    
    214000  -2246.6699      5353.9029      3107.233       251.13765      299.40381      174.75367      1.1605341      0.85289571   
    215000  -2151.8988      5408.6373      3256.7384      533.96563      302.4647       174.75284      1.1603989      0.85549605   
    216000  -2188.2314      5375.5785      3187.3471      274.5298       300.61597      174.82587      1.1605486      0.84911692   
    217000  -2277.1096      5309.7584      3032.6488      323.11525      296.93514      174.79827      1.1604418      0.85621503   
    218000  -2279.1072      5431.0153      3151.9081      76.7557        303.71613      174.86911      1.1607064      0.84991917   
    219000  -2198.4217      5348.5788      3150.1571     -310.86008      299.10608      174.70551      1.1609694      0.85025976   
    220000  -2267.198       5326.4948      3059.2967     -192.22888      297.87108      174.73516      1.1608146      0.84912246   
    221000  -2302.2459      5415.5155      3113.2696     -422.63766      302.84935      174.72662      1.1611105      0.86033233   
    222000  -2272.4313      5455.8419      3183.4106      76.482837      305.1045       174.7439       1.1606806      0.86015525   
    223000  -2428.0368      5428.2695      3000.2328      294.08538      303.56258      174.86007      1.1604741      0.86446333   
    224000  -2320.027       5273.0623      2953.0353      313.7215       294.883        174.8408       1.1604605      0.85885068   
    225000  -2226.6474      5336.7027      3110.0553      241.70328      298.44193      174.81534      1.1605887      0.86298381   
    226000  -2307.7767      5370.5724      3062.7957      177.53942      300.33602      174.80425      1.1605817      0.85980052   
    227000  -2292.5618      5360.9104      3068.3486      123.98449      299.79569      174.78149      1.1605866      0.8553629    
    228000  -2371.1179      5394.0055      3022.8875      25.608654      301.64645      174.84067      1.160743       0.87500084   
    229000  -2465.3951      5431.9117      2966.5166      0.08600138     303.76626      174.91032      1.1607293      0.88409527   
    230000  -2432.1485      5362.6687      2930.5202     -146.90508      299.89402      174.87963      1.1608745      0.88227267   
    231000  -2169.6601      5347.727       3178.0669      54.232104      299.05844      174.76266      1.160637       0.85339891   
    232000  -2213.3705      5432.525       3219.1546      648.4146       303.80056      174.80709      1.1602049      0.85714014   
    233000  -2288.0647      5337.8017      3049.737       487.19212      298.50339      174.83151      1.160319       0.85925473   
    234000  -2205.6538      5411.4288      3205.775       516.88225      302.62081      174.81035      1.1602847      0.85112304   
    235000  -2285.5653      5359.5974      3074.032       481.21756      299.72226      174.74335      1.16039        0.8625723    
    236000  -2187.8965      5327.1678      3139.2713     -15.362148      297.90872      174.69482      1.160682       0.84567342   
    237000  -2088.8391      5393.1289      3304.2897     -111.18139      301.59743      174.68696      1.1607863      0.84194384   
    238000  -2232.5681      5360.0014      3127.4333      17.134245      299.74485      174.78967      1.16072        0.85333382   
    239000  -2203.7026      5373.7776      3170.0751     -180.46761      300.51526      174.78805      1.1608342      0.84314247   
    240000  -2171.0884      5405.9354      3234.847       105.76868      302.3136       174.70862      1.1605799      0.8438883    
    241000  -2187.567       5310.0477      3122.4807      521.86936      296.95132      174.82145      1.1603267      0.8481789    
    242000  -2217.4167      5239.9701      3022.5534      485.11238      293.0324       174.81237      1.1602652      0.84946637   
    243000  -2168.0658      5393.5987      3225.5329      767.12822      301.6237       174.78281      1.1601036      0.84710636   
    244000  -2240.3743      5451.4365      3211.0622      278.16916      304.85814      174.76395      1.1605474      0.85280679   
    245000  -2210.1589      5359.9524      3149.7936     -116.24848      299.74212      174.72232      1.160817       0.85714449   
    246000  -2166.4579      5379.0251      3212.5672     -693.35279      300.80871      174.73726      1.161227       0.84062335   
    247000  -2164.5467      5408.4073      3243.8605     -208.86194      302.45184      174.78255      1.1609909      0.84407024   
    248000  -2311.9264      5366.8529      3054.9265      66.58809       300.12801      174.78923      1.1606799      0.86157683   
    249000  -2262.6377      5297.8423      3035.2046      277.87167      296.26876      174.78446      1.1604604      0.85403422   
    250000  -2274.9931      5358.7013      3083.7083      749.77674      299.67215      174.76458      1.1601784      0.85965866   
    251000  -2233.6201      5353.9263      3120.3062      579.36943      299.40512      174.73986      1.1603051      0.85028887   
    252000  -2237.1815      5388.6542      3151.4727      312.94655      301.34719      174.70108      1.1605574      0.85516857   
    253000  -2261.3731      5411.5559      3150.1827      118.72948      302.62791      174.79611      1.1606625      0.85701433   
    254000  -2251.5445      5368.3531      3116.8085     -333.49766      300.2119       174.73879      1.1609802      0.86118712   
    255000  -2124.3667      5356.7936      3232.4269     -352.56859      299.56547      174.70716      1.1609992      0.84707502   
    256000  -2254.4072      5365.0018      3110.5946      46.127773      300.02449      174.76469      1.1606742      0.84920939   
    257000  -2264.483       5356.6822      3092.1993      111.98954      299.55924      174.82786      1.1605781      0.85252046   
    258000  -2186.3199      5351.2783      3164.9584      374.71505      299.25704      174.80825      1.1604468      0.86122192   
    259000  -2402.1878      5419.9673      3017.7795      373.98718      303.0983       174.86089      1.1603625      0.86655074   
    260000  -2436.9332      5363.442       2926.5088      324.63524      299.93726      174.85079      1.1604869      0.88462402   
    261000  -2300.5721      5464.9382      3164.366       223.55797      305.61319      174.83457      1.1605362      0.87627733   
    262000  -2290.0315      5438.6592      3148.6277     -154.54233      304.1436       174.80381      1.1608753      0.87273388   
    263000  -2366.0525      5349.241       2983.1884     -150.86599      299.14311      174.92745      1.1607633      0.86326579   
    264000  -2191.7073      5384.4747      3192.7674     -414.07808      301.11346      174.66395      1.1610584      0.8644057    
    265000  -2376.6521      5411.7171      3035.065      -144.87097      302.63693      174.82438      1.1608581      0.87431157   
    266000  -2306.2029      5463.0793      3156.8763      145.16104      305.50923      174.80726      1.1606165      0.86091412   
    267000  -2243.6846      5302.9349      3059.2503      307.71023      296.55355      174.73721      1.1604753      0.85893729   
    268000  -2297.7313      5467.6889      3169.9576      414.55184      305.76701      174.79239      1.1603434      0.85734703   
    269000  -2389.8373      5381.1485      2991.3112      564.4559       300.92746      174.84136      1.1602961      0.86566362   
    270000  -2188.4092      5421.5048      3233.0956      127.25024      303.18428      174.7127       1.1606546      0.85137885   
    271000  -2275.0354      5339.383       3064.3476     -114.70251      298.59182      174.81624      1.1607864      0.86115451   
    272000  -2230.4716      5444.1754      3213.7038      2.9511779      304.45208      174.74993      1.1607827      0.8645674    
    273000  -2320.2807      5371.3817      3051.101       181.86296      300.38127      174.70917      1.1606168      0.86934893   
    274000  -2344.9458      5427.6955      3082.7497      237.05711      303.53048      174.78981      1.1605379      0.87067992   
    275000  -2361.8821      5456.0328      3094.1507      421.49429      305.11518      174.77051      1.1603957      0.87000199   
    276000  -2398.457       5331.0382      2932.5812      696.90078      298.12516      174.85329      1.1602401      0.88161263   
    277000  -2337.4467      5339.7794      3002.3327      429.32383      298.61399      174.7289       1.1604007      0.87340223   
    278000  -2322.5336      5336.4047      3013.8711      97.378547      298.42527      174.72937      1.1605724      0.86875857   
    279000  -2328.2795      5399.7473      3071.4677      57.411648      301.96755      174.8261       1.1607369      0.86979302   
    280000  -2320.3902      5257.889       2937.4988     -261.54488      294.03447      174.78573      1.160908       0.86407791   
    281000  -2188.7159      5308.7074      3119.9915     -377.36514      296.87637      174.69146      1.1610022      0.85433188   
    282000  -2365.7881      5413.2797      3047.4916      116.98045      302.72431      174.82459      1.1606251      0.85947958   
    283000  -2254.1391      5260.5956      3006.4565      398.42192      294.18583      174.7775       1.1603845      0.86194126   
    284000  -2267.8348      5210.0689      2942.2341      731.57569      291.36025      174.83657      1.1600609      0.85690353   
    285000  -2356.3439      5271.7396      2915.3958      527.20618      294.80903      174.7699       1.1603219      0.86064396   
    286000  -2125.9115      5313.564       3187.6525      240.6321       297.14796      174.73626      1.1604807      0.84066365   
    287000  -2211.1565      5488.3439      3277.1873     -230.81113      306.92209      174.84194      1.1609121      0.84464393   
    288000  -2278.9023      5405.1285      3126.2262     -191.63451      302.26848      174.79173      1.1609192      0.85399967   
    289000  -2333.0649      5345.64        3012.5751     -245.42334      298.94173      174.86134      1.1609089      0.86117954   
    290000  -2384.7381      5347.1335      2962.3954     -270.71077      299.02525      174.84627      1.1609041      0.86456552   
    291000  -2327.3428      5374.6646      3047.3218      264.70353      300.56486      174.79053      1.1605023      0.85915721   
    292000  -2394.6461      5332.3699      2937.7238      354.19303      298.19963      174.85736      1.160406       0.86075808   
    293000  -2254.1588      5363.9173      3109.7585      796.14313      299.96384      174.80967      1.1601691      0.86039093   
    294000  -2300.1829      5335.8545      3035.6716      505.09447      298.3945       174.80839      1.1603831      0.8557341    
    295000  -2287.8364      5278.5751      2990.7386      153.666        295.19129      174.73415      1.1605766      0.85765394   
    296000  -2295.137       5368.0156      3072.8785     -337.34912      300.19303      174.74087      1.1610374      0.85824019   
    297000  -2255.0204      5370.12        3115.0996     -305.75727      300.31072      174.7716       1.1609311      0.84748482   
    298000  -2216.7785      5439.2539      3222.4755     -102.96809      304.17686      174.75646      1.1608133      0.84963722   
    299000  -2327.7248      5423.9851      3096.2602      75.114664      303.32298      174.73479      1.1607325      0.86434568   
    300000  -2317.0756      5345.2903      3028.2148      303.42939      298.92218      174.78089      1.1604463      0.85691696   
    301000  -2314.3189      5282.7165      2968.3975      633.04223      295.42289      174.76333      1.1602035      0.86306688   
    302000  -2376.3946      5409.9253      3033.5307      778.85002      302.53673      174.84274      1.1601522      0.86144478   
    302731  -2368.3072      5303.9764      2935.6692     -241.35476      296.6118       174.80707      1.1609055      0.85925019   
Loop time of 469.512 on 36 procs for 100000 steps with 6000 atoms

Performance: 4.601 ns/day, 5.217 hours/ns, 212.987 timesteps/s, 1.278 Matom-step/s
99.2% CPU use with 36 MPI tasks x no OpenMP threads

MPI task timing breakdown:
Section |  min time  |  avg time  |  max time  |%varavg| %total
---------------------------------------------------------------
Pair    | 48.436     | 62.05      | 70.501     |  63.3 | 13.22
Bond    | 0.66376    | 0.72841    | 0.76531    |   2.4 |  0.16
Kspace  | 305.44     | 313.78     | 327.03     |  26.6 | 66.83
Neigh   | 0.35439    | 0.36457    | 0.37701    |   1.3 |  0.08
Comm    | 28.179     | 30.747     | 33.141     |  29.6 |  6.55
Output  | 0.013104   | 0.014462   | 0.059785   |   6.4 |  0.00
Modify  | 27.468     | 42.668     | 60.595     | 204.5 |  9.09
Other   |            | 19.16      |            |       |  4.08

Nlocal:        166.667 ave         191 max         138 min
Histogram: 2 1 4 4 2 5 8 7 1 2
Nghost:         3454.5 ave        3500 max        3414 min
Histogram: 4 2 4 5 3 7 5 2 0 4
Neighs:        41384.5 ave       50706 max       31990 min
Histogram: 2 3 3 7 3 6 3 3 3 3

Total # of neighbors = 1489843
Ave neighs/atom = 248.30717
Ave special neighs/atom = 2
Neighbor list builds = 267
Dangerous builds = 0

timestep    0.5
run         ${Ninptpre}
run         100000
PPPM initialization ...
  using 12-bit tables for long-range coulomb (../kspace.cpp:342)
  G vector (1/distance) = 0.26721304
  grid = 50 50 50
  stencil order = 5
  estimated absolute RMS force accuracy = 0.00042639849
  estimated relative force accuracy = 1.2840864e-06
  using double precision KISS FFT
  3d grid and FFT values/proc = 12500 5000
Generated 1 of 1 mixed pair_coeff terms from arithmetic mixing rule
Per MPI rank memory allocation (min/avg/max) = 7.978 | 8.157 | 8.727 Mbytes
   Step         PotEng         KinEng         TotEng         Press           Temp       c_theta_ave    c_length_ave    v_Density   
    302731  -2368.3072      5303.9764      2935.6692     -241.35482      296.6118       174.80707      1.1609055      0.85925019   
    303000  -2359.7391      5475.0201      3115.281       622.4683       306.17699      174.78427      1.1603107      0.86302406   
    304000  -2291.7034      5287.9929      2996.2895      589.13706      295.71796      174.68675      1.1602736      0.86285391   
    305000  -2396.2824      5358.8901      2962.6077      101.29949      299.68271      174.88957      1.1606774      0.87081622   
    306000  -2426.9063      5396.3393      2969.4329     -600.56297      301.77696      174.87364      1.1611734      0.87718857   
    307000  -2224.4082      5345.0281      3120.62        98.270138      298.90751      174.72594      1.1605854      0.85454229   
    308000  -2289.4859      5419.7939      3130.308       281.24736      303.08861      174.79063      1.1605163      0.86506944   
    309000  -2381.8287      5362.6615      2980.8328      725.64148      299.89362      174.8497       1.1601438      0.86768357   
    310000  -2280.0357      5368.5774      3088.5417      129.09095      300.22445      174.73507      1.1606415      0.86774687   
    311000  -2251.5068      5343.1194      3091.6126     -220.60361      298.80077      174.82004      1.1608846      0.86014798   
    312000  -2298.9738      5299.5381      3000.5643     -394.49417      296.3636       174.80213      1.160971       0.86977154   
    313000  -2446.4576      5354.3023      2907.8447      539.33908      299.42615      174.82788      1.1603379      0.88093344   
    314000  -2330.8766      5383.1278      3052.2512      639.46738      301.03814      174.75029      1.1602802      0.87501999   
    315000  -2295.0872      5329.399       3034.3118      218.30401      298.03349      174.78797      1.1605126      0.86155079   
    316000  -2172.9374      5358.0161      3185.0787      23.216256      299.63383      174.66346      1.16067        0.85645157   
    317000  -2226.2654      5271.2926      3045.0272     -53.725532      294.78404      174.70115      1.1607546      0.86293339   
    318000  -2392.5157      5331.0589      2938.5432      626.00165      298.12632      174.81532      1.1602859      0.87488621   
    319000  -2257.8617      5375.2716      3117.4099      322.24545      300.59881      174.77483      1.160484       0.86328532   
    320000  -2262.103       5356.0058      3093.9027      154.22855      299.52141      174.74185      1.1605698      0.85147292   
    321000  -2169.5092      5363.0465      3193.5373      70.141922      299.91515      174.68918      1.160721       0.85634294   
    322000  -2278.7217      5415.7907      3137.069      -673.85041      302.86473      174.73647      1.1612782      0.87261693   
    323000  -2309.7268      5204.1397      2894.4129      6.7411269      291.02867      174.80445      1.1606677      0.86783367   
    324000  -2235.9155      5311.663       3075.7475      544.82213      297.04165      174.72578      1.1602993      0.86032979   
    325000  -2332.4714      5458.7527      3126.2813      909.23146      305.26728      174.78128      1.1600788      0.86788404   
    326000  -2373.5866      5296.7177      2923.1311     -96.836702      296.20587      174.7937       1.1607614      0.86281835   
    327000  -2279.2755      5415.0302      3135.7547     -240.76806      302.8222       174.86021      1.1609843      0.86183499   
    328000  -2295.3407      5338.9165      3043.5757      79.626917      298.56573      174.83857      1.1606666      0.8626964    
    329000  -2161.7644      5392.158       3230.3937      307.45856      301.54314      174.72811      1.1605256      0.8571463    
    330000  -2259.0245      5358.8288      3099.8043      526.48432      299.67928      174.76532      1.1602991      0.85297419   
    331000  -2292.6608      5332.3983      3039.7376      27.975979      298.20122      174.75479      1.1607271      0.86566568   
    332000  -2383.5775      5306.3061      2922.7286     -60.1391        296.74208      174.77591      1.1607674      0.87128471   
    333000  -2333.6761      5403.2491      3069.573      -107.13849      302.16338      174.78175      1.1608054      0.86983251   
    334000  -2396.6091      5327.0183      2930.4092      300.80327      297.90036      174.84528      1.160494       0.87293894   
    335000  -2331.3092      5267.3831      2936.0739      660.27501      294.56541      174.78439      1.1602021      0.87573827   
    336000  -2306.1327      5451.555       3145.4223      74.204751      304.86477      174.78622      1.1607196      0.8665769    
    337000  -2357.2561      5407.2229      3049.9668     -220.23553      302.3856       174.75004      1.1608758      0.86269167   
    338000  -2286.0804      5377.2816      3091.2012     -245.31802      300.71121      174.75986      1.1609016      0.85971446   
    339000  -2273.2418      5371.245       3098.0032      339.55245      300.37363      174.75021      1.1604459      0.87083019   
    340000  -2270.0992      5320.4356      3050.3363      479.86503      297.53223      174.74326      1.1603298      0.86656456   
    341000  -2254.8213      5401.6675      3146.8463      186.01499      302.07493      174.8064       1.1606214      0.8651135    
    342000  -2209.9379      5381.6922      3171.7543     -219.23874      300.95786      174.71776      1.1608617      0.85315534   
    343000  -2285.0148      5536.7524      3251.7376     -82.076263      309.62922      174.74992      1.1608095      0.8522889    
    344000  -2259.1968      5380.0341      3120.8373      444.09497      300.86514      174.75868      1.160342       0.84842635   
    345000  -2185.5357      5313.1637      3127.628       424.69285      297.12558      174.73866      1.1603359      0.84664707   
    346000  -2340.6499      5318.2278      2977.5778      170.91618      297.40877      174.85359      1.160571       0.86110617   
    347000  -2358.1358      5352.4808      2994.345      -401.29504      299.32428      174.68703      1.1610247      0.87318181   
    348000  -2393.7574      5384.306       2990.5486     -73.429228      301.10403      174.76942      1.1607519      0.86787206   
    349000  -2367.7276      5230.3355      2862.6079      180.19347      292.49361      174.86503      1.1605628      0.86119209   
    350000  -2381.3423      5209.3914      2828.0491      387.93545      291.32236      174.81764      1.1603015      0.87026692   
    351000  -2231.6912      5418.7504      3187.0592      207.1021       303.03025      174.74607      1.160594       0.86371626   
    352000  -2330.3857      5312.8803      2982.4947     -35.312726      297.10973      174.73946      1.1607799      0.86768689   
    353000  -2318.3825      5365.3872      3047.0047     -317.5251       300.04604      174.77528      1.1609221      0.85484057   
    354000  -2337.1945      5410.4491      3073.2546      5.4798964      302.56602      174.70674      1.1607618      0.86264421   
    355000  -2379.5668      5464.922       3085.3552      543.2133       305.61228      174.77457      1.1603028      0.86874318   
    356000  -2321.1152      5338.7998      3017.6846      459.98048      298.55921      174.81916      1.1603574      0.86996295   
    357000  -2303.961       5375.9137      3071.9527     -47.81189       300.63472      174.80335      1.1606848      0.86500887   
    358000  -2276.558       5472.1108      3195.5528      48.186793      306.0143       174.67971      1.1606481      0.86307215   
    359000  -2254.7505      5432.8097      3178.0592      80.99084       303.81648      174.82005      1.1606153      0.85025698   
    360000  -2219.4024      5416.3691      3196.9667      467.62219      302.89708      174.82836      1.1603522      0.84658194   
    361000  -2334.0202      5249.9837      2915.9635      313.25886      293.59239      174.85362      1.1604469      0.85936476   
    362000  -2268.7233      5352.8199      3084.0966      186.4669       299.34325      174.69817      1.1606032      0.86703763   
    363000  -2313.0283      5440.1012      3127.0729     -50.46295       304.22424      174.77989      1.1608139      0.87891484   
    364000  -2418.5911      5396.6065      2978.0154     -227.06433      301.79191      174.8922       1.1608755      0.87492713   
    365000  -2289.0017      5433.5942      3144.5925      103.69231      303.86035      174.71957      1.1606105      0.86294044   
    366000  -2393.3385      5304.4401      2911.1016      909.25874      296.63773      174.78514      1.1600641      0.87331583   
    367000  -2335.1421      5375.6801      3040.538       293.49864      300.62165      174.75916      1.1605049      0.86778195   
    368000  -2082.7873      5280.9255      3198.1383     -39.822653      295.32273      174.65469      1.1607118      0.84125551   
    369000  -2152.9714      5524.0199      3371.0484     -368.11559      308.91718      174.68362      1.1610223      0.83729084   
    370000  -2323.5609      5356.8325      3033.2716      51.360413      299.56764      174.80551      1.1606745      0.85950109   
    371000  -2268.0813      5389.7308      3121.6495      881.45797      301.4074       174.7426       1.1600319      0.8635705    
    372000  -2343.9753      5469.1612      3125.1859      419.09752      305.84935      174.84396      1.1604632      0.86553422   
    373000  -2450.4901      5342.0249      2891.5349      7.7151112      298.73957      174.84731      1.1606427      0.87183204   
    374000  -2354.0892      5307.3057      2953.2166     -538.06133      296.79798      174.81456      1.1611339      0.8632305    
    375000  -2291.4259      5427.3963      3135.9705     -188.46475      303.51375      174.75278      1.1608748      0.86403776   
    376000  -2240.8392      5371.4523      3130.613       249.53586      300.38522      174.71497      1.1605415      0.86263775   
    377000  -2397.2492      5445.5419      3048.2927      639.13793      304.5285       174.81531      1.1602654      0.87575675   
    378000  -2364.377       5346.9752      2982.5982      160.37871      299.0164       174.79934      1.1605578      0.87324497   
    379000  -2261.3576      5394.9066      3133.549      -274.67547      301.69685      174.77118      1.1609539      0.87312226   
    380000  -2279.9815      5394.8423      3114.8608     -4.660877       301.69325      174.68373      1.1607564      0.86328663   
    381000  -2283.913       5427.4075      3143.4945      258.24948      303.51438      174.7152       1.1605336      0.8553517    
    382000  -2283.2902      5467.3497      3184.0596      875.51313      305.74805      174.81145      1.1600732      0.85910925   
    383000  -2213.4508      5393.7623      3180.3114      231.07891      301.63285      174.73255      1.1605524      0.85381499   
    384000  -2213.7722      5312.1315      3098.3593     -257.55127      297.06785      174.7385       1.1608971      0.84512147   
    385000  -2278.7806      5359.7135      3080.933      -60.176548      299.72876      174.72613      1.1607822      0.84857487   
    386000  -2292.1555      5384.4011      3092.2456      54.39886       301.10935      174.83038      1.1606655      0.84750019   
    387000  -2362.4462      5279.4009      2916.9547      671.1844       295.23747      174.7654       1.1601646      0.86035942   
    388000  -2418.6783      5333.9314      2915.253       507.08069      298.28695      174.79467      1.1603143      0.87415883   
    389000  -2234.177       5299.8487      3065.6717      12.563929      296.38096      174.74848      1.1607092      0.85543087   
    390000  -2296.19        5328.6044      3032.4144     -413.14811      297.98906      174.73533      1.1610653      0.86167778   
    391000  -2222.2368      5321.2457      3099.0089      68.05552       297.57754      174.76682      1.1606232      0.84939457   
    392000  -2338.1802      5376.9763      3038.7962      426.04969      300.69414      174.77859      1.1603785      0.86397952   
    393000  -2164.2669      5400.6321      3236.3652      928.20134      302.01703      174.70551      1.1599539      0.85040324   
    394000  -2350.3766      5268.901       2918.5244      65.349861      294.65029      174.85231      1.1606551      0.86292576   
    395000  -2320.327       5406.1218      3085.7948     -184.62884      302.32402      174.79106      1.1608891      0.86306193   
    396000  -2167.3017      5383.8141      3216.5124     -78.940748      301.07652      174.681        1.1608121      0.84330677   
    397000  -2076.2147      5459.2575      3383.0428      454.34132      305.29551      174.63468      1.1603894      0.84606169   
    398000  -2277.4499      5371.1674      3093.7175      348.57206      300.36929      174.73927      1.1604697      0.85844326   
    399000  -2261.1542      5452.8424      3191.6882      140.88506      304.93676      174.8158       1.1605788      0.85052713   
    400000  -2319.1297      5245.8668      2926.7371     -457.80682      293.36216      174.76764      1.1610035      0.85909615   
    401000  -2214.258       5380.7102      3166.4523     -45.772431      300.90295      174.72672      1.1607001      0.85236594   
    402000  -2221.2769      5378.1471      3156.8702      270.22465      300.75961      174.65605      1.1605661      0.86697425   
    402731  -2244.8674      5327.5927      3082.7253     -283.61819      297.93248      174.72202      1.1609068      0.85290891   
Loop time of 469.362 on 36 procs for 100000 steps with 6000 atoms

Performance: 9.204 ns/day, 2.608 hours/ns, 213.055 timesteps/s, 1.278 Matom-step/s
99.2% CPU use with 36 MPI tasks x no OpenMP threads

MPI task timing breakdown:
Section |  min time  |  avg time  |  max time  |%varavg| %total
---------------------------------------------------------------
Pair    | 53.484     | 62.926     | 71.432     |  60.1 | 13.41
Bond    | 0.67478    | 0.72817    | 0.78059    |   2.5 |  0.16
Kspace  | 302.57     | 312.12     | 321.77     |  25.7 | 66.50
Neigh   | 0.7218     | 0.74033    | 0.7662     |   2.0 |  0.16
Comm    | 28.198     | 30.901     | 33.425     |  29.9 |  6.58
Output  | 0.013413   | 0.014839   | 0.062969   |   6.7 |  0.00
Modify  | 27.587     | 42.733     | 60.713     | 204.8 |  9.10
Other   |            | 19.2       |            |       |  4.09

Nlocal:        166.667 ave         195 max         127 min
Histogram: 1 1 1 3 5 6 7 7 3 2
Nghost:        3488.39 ave        3613 max        3387 min
Histogram: 1 1 9 4 7 6 3 4 0 1
Neighs:        41544.4 ave       51346 max       27163 min
Histogram: 1 1 1 4 5 4 7 7 3 3

Total # of neighbors = 1495598
Ave neighs/atom = 249.26633
Ave special neighs/atom = 2
Neighbor list builds = 537
Dangerous builds = 0

#-----------------------
# Run (Initialization)
#-----------------------

unfix       runnpt
reset_timestep 0

fix runnpt all npt temp ${simulationTemp} ${simulationTemp} 100 iso ${pressure} ${pressure} 1000
fix runnpt all npt temp 300 ${simulationTemp} 100 iso ${pressure} ${pressure} 1000
fix runnpt all npt temp 300 300 100 iso ${pressure} ${pressure} 1000
fix runnpt all npt temp 300 300 100 iso 138.18 ${pressure} 1000
fix runnpt all npt temp 300 300 100 iso 138.18 138.18 1000

timestep    ${timestep}
timestep    0.5
run         ${Ninpt}
run         1000000
PPPM initialization ...
  using 12-bit tables for long-range coulomb (../kspace.cpp:342)
  G vector (1/distance) = 0.26707595
  grid = 50 50 50
  stencil order = 5
  estimated absolute RMS force accuracy = 0.00042945388
  estimated relative force accuracy = 1.2932876e-06
  using double precision KISS FFT
  3d grid and FFT values/proc = 12500 5000
Generated 1 of 1 mixed pair_coeff terms from arithmetic mixing rule
Per MPI rank memory allocation (min/avg/max) = 7.978 | 8.157 | 8.727 Mbytes
   Step         PotEng         KinEng         TotEng         Press           Temp       c_theta_ave    c_length_ave    v_Density   
         0  -2244.8675      5327.5927      3082.7252     -283.61814      297.93248      174.72202      1.1609068      0.85290891   
      1000  -2299.2475      5331.7333      3032.4858      160.54705      298.16403      174.73775      1.1606181      0.86451224   
      2000  -2279.9929      5369.4784      3089.4856     -81.607487      300.27484      174.78615      1.1608375      0.87152258   
      3000  -2322.0977      5452.6905      3130.5928      686.88758      304.92827      174.85484      1.1602236      0.86991111   
      4000  -2255.2542      5358.601       3103.3468     -5.0862437      299.66654      174.7032       1.1607136      0.86428789   
      5000  -2278.4702      5374.3655      3095.8952     -3.0560651      300.54813      174.68607      1.160745       0.86051015   
      6000  -2200.0951      5389.5149      3189.4198      300.68841      301.39533      174.77437      1.1604808      0.8494826    
      7000  -2225.5735      5408.5279      3182.9543      645.88685      302.45858      174.73083      1.1602932      0.85248544   
      8000  -2204.5011      5441.6191      3237.118       448.09673      304.30913      174.76189      1.1603944      0.8584696    
      9000  -2211.0068      5409.4709      3198.4641      397.0083       302.51132      174.75901      1.1604229      0.85607476   
     10000  -2159.2895      5335.8662      3176.5767      518.44824      298.39515      174.7214       1.1602999      0.85225026   
     11000  -2291.2486      5423.4102      3132.1615     -160.32592      303.29084      174.77894      1.1608279      0.8597105    
     12000  -2374.5133      5403.5525      3029.0393      49.260519      302.18035      174.79314      1.1606704      0.87425312   
     13000  -2355.2789      5441.9945      3086.7157      299.73872      304.33012      174.77896      1.1604721      0.87271865   
     14000  -2427.0223      5415.3346      2988.3124     -244.71598      302.83923      174.72286      1.1608939      0.87539587   
     15000  -2376.4206      5378.3656      3001.945       229.7071       300.77183      174.82974      1.1605328      0.87158235   
     16000  -2300.3611      5431.0319      3130.6708     -265.2087       303.71706      174.75347      1.1609296      0.86565427   
     17000  -2294.9926      5359.6677      3064.6751      77.13399       299.7262       174.81154      1.1606129      0.85580879   
     18000  -2248.6733      5334.9753      3086.3019      532.06418      298.34533      174.68867      1.160295       0.86452461   
     19000  -2336.6092      5432.2699      3095.6607      429.04748      303.78629      174.7811       1.1605137      0.87573906   
     20000  -2342.4947      5416.3818      3073.8871      183.91466      302.89779      174.86119      1.1606134      0.86788718   
     21000  -2268.5194      5342.6995      3074.1801      394.99981      298.77729      174.79668      1.1603494      0.86055337   
     22000  -2299.4267      5329.547       3030.1202     -233.63966      298.04177      174.78556      1.1608286      0.8586655    
     23000  -2315.8509      5384.8633      3069.0124      424.51989      301.1352       174.83799      1.1603956      0.86590604   
     24000  -2312.1715      5320.3151      3008.1436      600.1568       297.5255       174.78618      1.1602614      0.86541045   
     25000  -2294.9158      5308.6636      3013.7478     -156.32619      296.87392      174.84532      1.1607651      0.84921055   
     26000  -2230.1682      5303.1369      3072.9687      416.73704      296.56485      174.81436      1.1603481      0.84958925   
     27000  -2248.9189      5323.4879      3074.569       197.39593      297.70293      174.81284      1.1605752      0.85414131   
     28000  -2193.4656      5347.2582      3153.7926      281.56026      299.03223      174.67978      1.160542       0.856449     
     29000  -2221.7332      5404.8396      3183.1063      196.56405      302.25232      174.74374      1.1605763      0.85534132   
     30000  -2275.6454      5406.297       3130.6516      481.75708      302.33383      174.74503      1.1603461      0.86401238   
     31000  -2319.516       5355.1501      3035.6342      133.7272       299.47356      174.74739      1.1606024      0.86572487   
     32000  -2229.0573      5340.5578      3111.5005      184.46701      298.65752      174.73375      1.1605293      0.85488472   
     33000  -2184.3512      5313.5804      3129.2292     -74.235156      297.14888      174.73846      1.1607852      0.84597196   
     34000  -2042.655       5393.9337      3351.2787      159.13495      301.64244      174.61071      1.1606058      0.84523904   
     35000  -2206.3669      5377.5037      3171.1369      328.60426      300.72363      174.75332      1.1604557      0.85087819   
     36000  -2320.252       5527.0219      3206.7699      237.9376       309.08507      174.77741      1.1606595      0.86647243   
     37000  -2420.5518      5351.1342      2930.5824     -219.79859      299.24898      174.78613      1.1608964      0.86806864   
     38000  -2321.0969      5294.0478      2972.9509      185.21943      296.05657      174.76861      1.1605156      0.8606378    
     39000  -2211.1313      5399.3445      3188.2132     -0.27182631     301.94502      174.74943      1.1607176      0.85664982   
     40000  -2184.9822      5394.0932      3209.1111      202.98289      301.65136      174.72         1.1605371      0.8499239    
     41000  -2241.4408      5413.4278      3171.987       97.535386      302.7326       174.68444      1.1606604      0.86203321   
     42000  -2289.8914      5451.2756      3161.3842      82.187359      304.84914      174.77274      1.1606665      0.86176821   
     43000  -2169.605       5352.9673      3183.3622     -38.003617      299.35149      174.70384      1.1607981      0.85229526   
     44000  -2177.4308      5352.2931      3174.8623      470.33469      299.31379      174.71144      1.1603499      0.84848144   
     45000  -2263.2241      5473.9844      3210.7603      306.04673      306.11907      174.79304      1.1605564      0.8626669    
     46000  -2269.2703      5407.5155      3138.2452      791.60313      302.40197      174.73395      1.1601213      0.86167961   
     47000  -2268.4358      5349.3886      3080.9528      221.77633      299.15136      174.71484      1.1605099      0.86180096   
     48000  -2350.6439      5360.211       3009.5672     -188.74077      299.75658      174.80922      1.1608929      0.86749048   
     49000  -2313.5198      5328.6688      3015.1491      865.56769      297.99266      174.76107      1.1600692      0.86484355   
     50000  -2307.889       5426.7585      3118.8694     -393.18285      303.47808      174.74931      1.1610643      0.86999761   
     51000  -2337.3497      5386.7072      3049.3575      513.18341      301.23831      174.79517      1.1604054      0.87361758   
     52000  -2296.2817      5348.5536      3052.2718      56.221098      299.10467      174.83353      1.1606708      0.85350055   
     53000  -2133.6143      5284.8349      3151.2206      101.86007      295.54135      174.68268      1.1605594      0.8451723    
     54000  -2208.9401      5319.0453      3110.1052      565.04115      297.45449      174.80049      1.160337       0.84917636   
     55000  -2158.9692      5312.5631      3153.5939     -378.34449      297.09199      174.69395      1.1609919      0.83371891   
     56000  -2162.7291      5408.5283      3245.7992      305.6388       302.4586       174.72484      1.160531       0.84096803   
     57000  -2266.042       5351.2072      3085.1652      170.77701      299.25307      174.78613      1.160569       0.84860373   
     58000  -2244.0188      5371.6387      3127.6199     -198.23313      300.39565      174.70947      1.1608713      0.85945054   
     59000  -2303.7227      5277.4366      2973.7139      148.05831      295.12762      174.74203      1.1605729      0.8613001    
     60000  -2298.5686      5355.3611      3056.7925      214.82653      299.48536      174.77564      1.1604829      0.85938639   
     61000  -2283.4828      5410.5786      3127.0958      217.39505      302.57326      174.75295      1.160571       0.86719101   
     62000  -2393.4897      5376.2661      2982.7764      502.29056      300.65442      174.81095      1.1603127      0.86415999   
     63000  -2277.5956      5305.9465      3028.351      -688.70834      296.72197      174.76991      1.1612397      0.86235346   
     64000  -2285.2803      5223.9354      2938.6551      305.17135      292.1357       174.77247      1.1604056      0.85833797   
     65000  -2327.9411      5335.6915      3007.7504      44.61286       298.38539      174.74997      1.1606535      0.86004027   
     66000  -2456.3187      5329.4212      2873.1025      285.95365      298.03473      174.7876       1.1605469      0.88131002   
     67000  -2382.09        5362.9569      2980.8669      241.25937      299.91013      174.74566      1.1605045      0.87228496   
     68000  -2233.2054      5395.0342      3161.8289     -69.193432      301.70398      174.69117      1.1607475      0.85939924   
     69000  -2227.318       5364.642       3137.324       191.84034      300.00437      174.69833      1.1606335      0.85937921   
     70000  -2261.124       5420.4793      3159.3553      353.08322      303.12693      174.82451      1.1603958      0.8500894    
     71000  -2134.5136      5344.3759      3209.8623      44.889466      298.87104      174.63552      1.1606726      0.84672819   
[...]
  11424000   167444.36      304.49309      783.44654      5444.9088     -2399.2746      3045.6342      0.87288083     0              0              0              29.285587      29.285587      195.23725    
  11425000   167444.36      299.46719      376.25569      5355.0362     -2309.2616      3045.7747      0.87288083     0              0              0              29.285587      29.285587      195.23725    
  11426000   167444.36      300.80944      191.54178      5379.0381     -2333.2161      3045.822       0.87288083     0              0              0              29.285587      29.285587      195.23725    
  11427000   167444.36      299.73077      47.727522      5359.7495     -2314.0112      3045.7383      0.87288083     0              0              0              29.285587      29.285587      195.23725    
  11428000   167444.36      305.59894      151.64497      5464.6834     -2419.0388      3045.6446      0.87288083     0              0              0              29.285587      29.285587      195.23725    
  11429000   167444.36      302.49066      346.20386      5409.1016     -2363.6118      3045.4898      0.87288083     0              0              0              29.285587      29.285587      195.23725    
  11430000   167444.36      305.07541     -20.018708      5455.3217     -2409.6767      3045.6449      0.87288083     0              0              0              29.285587      29.285587      195.23725    
  11431000   167444.36      300.15182     -344.36483      5367.2787     -2321.4741      3045.8047      0.87288083     0              0              0              29.285587      29.285587      195.23725    
  11432000   167444.36      301.45464      373.3096       5390.5755     -2344.5899      3045.9856      0.87288083     0              0              0              29.285587      29.285587      195.23725    
  11433000   167444.36      304.00893      750.07202      5436.2511     -2390.453       3045.7981      0.87288083     0              0              0              29.285587      29.285587      195.23725    
  11434000   167444.36      301.03379     -119.27723      5383.0499     -2337.296       3045.7539      0.87288083     0              0              0              29.285587      29.285587      195.23725    
  11435000   167444.36      300.71669      247.12183      5377.3796     -2331.4829      3045.8967      0.87288083     0              0              0              29.285587      29.285587      195.23725    
  11436000   167444.36      301.12332      349.29492      5384.6509     -2338.8986      3045.7523      0.87288083     0              0              0              29.285587      29.285587      195.23725    
  11437000   167444.36      304.31306      2.2307103      5441.6894     -2395.8134      3045.8761      0.87288083     0              0              0              29.285587      29.285587      195.23725    
  11438000   167444.36      300.80563      524.07401      5378.9701     -2332.9037      3046.0665      0.87288083     0              0              0              29.285587      29.285587      195.23725    
  11439000   167444.36      298.44504      402.38722      5336.7583     -2290.9289      3045.8294      0.87288083     0              0              0              29.285587      29.285587      195.23725    
  11440000   167444.36      304.16808     -0.34258342     5439.097      -2393.6566      3045.4404      0.87288083     0              0              0              29.285587      29.285587      195.23725    
  11441000   167444.36      304.42251     -192.54454      5443.6466     -2398.0133      3045.6334      0.87288083     0              0              0              29.285587      29.285587      195.23725    
  11442000   167444.36      301.14841      679.72954      5385.0996     -2339.2291      3045.8705      0.87288083     0              0              0              29.285587      29.285587      195.23725    
  11443000   167444.36      301.47362      871.30316      5390.9149     -2345.0487      3045.8662      0.87288083     0              0              0              29.285587      29.285587      195.23725    
  11444000   167444.36      301.77803      222.99723      5396.3584     -2350.608       3045.7503      0.87288083     0              0              0              29.285587      29.285587      195.23725    
  11445000   167444.36      303.94065      225.40587      5435.0301     -2389.4307      3045.5994      0.87288083     0              0              0              29.285587      29.285587      195.23725    
  11446000   167444.36      300.9914       549.24564      5382.292      -2336.6649      3045.6271      0.87288083     0              0              0              29.285587      29.285587      195.23725    
  11447000   167444.36      301.3281       126.15153      5388.3128     -2342.4351      3045.8777      0.87288083     0              0              0              29.285587      29.285587      195.23725    
  11448000   167444.36      299.86934      714.39692      5362.2274     -2316.1249      3046.1025      0.87288083     0              0              0              29.285587      29.285587      195.23725    
  11449000   167444.36      304.29188      249.9334       5441.3107     -2395.3566      3045.9541      0.87288083     0              0              0              29.285587      29.285587      195.23725    
  11450000   167444.36      302.38948     -200.59241      5407.2922     -2361.5409      3045.7513      0.87288083     0              0              0              29.285587      29.285587      195.23725    
  11451000   167444.36      302.00954      222.93044      5400.4982     -2354.6367      3045.8615      0.87288083     0              0              0              29.285587      29.285587      195.23725    
  11452000   167444.36      300.56319      539.87293      5374.6347     -2328.5209      3046.1138      0.87288083     0              0              0              29.285587      29.285587      195.23725    
  11453000   167444.36      301.76819      378.97724      5396.1824     -2350.2727      3045.9096      0.87288083     0              0              0              29.285587      29.285587      195.23725    
  11454000   167444.36      302.10365      314.94682      5402.1811     -2356.7041      3045.477       0.87288083     0              0              0              29.285587      29.285587      195.23725    
  11455000   167444.36      305.79873     -177.54197      5468.256      -2422.4174      3045.8385      0.87288083     0              0              0              29.285587      29.285587      195.23725    
  11456000   167444.36      300.48369     -71.35198       5373.213      -2327.1523      3046.0607      0.87288083     0              0              0              29.285587      29.285587      195.23725    
  11457000   167444.36      301.50695      94.934594      5391.511      -2345.6212      3045.8898      0.87288083     0              0              0              29.285587      29.285587      195.23725    
  11458000   167444.36      303.93584      328.98741      5434.9441     -2389.3424      3045.6017      0.87288083     0              0              0              29.285587      29.285587      195.23725    
  11459000   167444.36      300.01293      176.51072      5364.7951     -2319.3097      3045.4854      0.87288083     0              0              0              29.285587      29.285587      195.23725    
  11460000   167444.36      301.51903      903.28647      5391.7269     -2346.1225      3045.6044      0.87288083     0              0              0              29.285587      29.285587      195.23725    
  11461000   167444.36      302.21628      768.0599       5404.1951     -2358.173       3046.0221      0.87288083     0              0              0              29.285587      29.285587      195.23725    
  11462000   167444.36      301.60932     -71.554106      5393.3416     -2347.5335      3045.8081      0.87288083     0              0              0              29.285587      29.285587      195.23725    
  11463000   167444.36      304.60384      97.463653      5446.8892     -2401.4621      3045.4271      0.87288083     0              0              0              29.285587      29.285587      195.23725    
  11464000   167444.36      302.1003       578.95689      5402.1212     -2356.4598      3045.6614      0.87288083     0              0              0              29.285587      29.285587      195.23725    
  11465000   167444.36      302.96524      468.77746      5417.5878     -2371.5523      3046.0355      0.87288083     0              0              0              29.285587      29.285587      195.23725    
  11466000   167444.36      302.91566      122.81236      5416.7013     -2370.8002      3045.9012      0.87288083     0              0              0              29.285587      29.285587      195.23725    
  11467000   167444.36      301.68361     -67.350955      5394.67       -2348.8871      3045.7829      0.87288083     0              0              0              29.285587      29.285587      195.23725    
  11468000   167444.36      302.90227      338.35305      5416.4618     -2370.8719      3045.5899      0.87288083     0              0              0              29.285587      29.285587      195.23725    
  11469000   167444.36      301.75358      644.11298      5395.9211     -2350.1455      3045.7756      0.87288083     0              0              0              29.285587      29.285587      195.23725    
  11470000   167444.36      301.60925      42.412667      5393.3402     -2347.5401      3045.8001      0.87288083     0              0              0              29.285587      29.285587      195.23725    
  11471000   167444.36      305.42531     -115.34214      5461.5786     -2416.0739      3045.5047      0.87288083     0              0              0              29.285587      29.285587      195.23725    
  11472000   167444.36      302.10309      246.14659      5402.171      -2356.6095      3045.5615      0.87288083     0              0              0              29.285587      29.285587      195.23725    
  11473000   167444.36      300.56706      335.70949      5374.7039     -2328.9182      3045.7857      0.87288083     0              0              0              29.285587      29.285587      195.23725    
  11474000   167444.36      303.69974      67.082783      5430.7221     -2384.8469      3045.8752      0.87288083     0              0              0              29.285587      29.285587      195.23725    
  11475000   167444.36      300.05504      426.50249      5365.548      -2319.8893      3045.6587      0.87288083     0              0              0              29.285587      29.285587      195.23725    
  11476000   167444.36      301.23178      703.25181      5386.5904     -2340.9942      3045.5963      0.87288083     0              0              0              29.285587      29.285587      195.23725    
  11477000   167444.36      304.26845      6.9196278      5440.8918     -2395.101       3045.7907      0.87288083     0              0              0              29.285587      29.285587      195.23725    
  11478000   167444.36      301.0561      -550.15934      5383.4489     -2337.6306      3045.8183      0.87288083     0              0              0              29.285587      29.285587      195.23725    
  11479000   167444.36      306.40827     -80.459138      5479.1557     -2433.536       3045.6197      0.87288083     0              0              0              29.285587      29.285587      195.23725    
  11480000   167444.36      301.79641      635.42201      5396.6871     -2350.8366      3045.8504      0.87288083     0              0              0              29.285587      29.285587      195.23725    
  11481000   167444.36      299.15176     -68.713464      5349.3957     -2303.4254      3045.9703      0.87288083     0              0              0              29.285587      29.285587      195.23725    
  11482000   167444.36      297.30764      199.33071      5316.4193     -2270.6057      3045.8137      0.87288083     0              0              0              29.285587      29.285587      195.23725    
  11483000   167444.36      303.82756      1182.7263      5433.0079     -2387.209       3045.7989      0.87288083     0              0              0              29.285587      29.285587      195.23725    
  11484000   167444.36      301.65808      256.25196      5394.2134     -2348.2007      3046.0127      0.87288083     0              0              0              29.285587      29.285587      195.23725    
  11485000   167444.36      302.43615      167.56577      5408.1267     -2362.2069      3045.9198      0.87288083     0              0              0              29.285587      29.285587      195.23725    
  11486000   167444.36      305.05899      898.16687      5455.0281     -2409.2841      3045.744       0.87288083     0              0              0              29.285587      29.285587      195.23725    
  11487000   167444.36      304.34773      29.661631      5442.3094     -2396.3376      3045.9717      0.87288083     0              0              0              29.285587      29.285587      195.23725    
  11488000   167444.36      302.27808      361.76808      5405.3002     -2359.1543      3046.1459      0.87288083     0              0              0              29.285587      29.285587      195.23725    
  11489000   167444.36      307.38008      487.99424      5496.5336     -2450.8359      3045.6976      0.87288083     0              0              0              29.285587      29.285587      195.23725    
  11490000   167444.36      304.39629     -245.96963      5443.1777     -2397.419       3045.7588      0.87288083     0              0              0              29.285587      29.285587      195.23725    
  11491000   167444.36      299.09416      59.317566      5348.3657     -2302.239       3046.1267      0.87288083     0              0              0              29.285587      29.285587      195.23725    
  11492000   167444.36      302.16453      25.575513      5403.2697     -2357.2426      3046.0271      0.87288083     0              0              0              29.285587      29.285587      195.23725    
  11493000   167444.36      299.23029      425.02679      5350.7999     -2305.0178      3045.7821      0.87288083     0              0              0              29.285587      29.285587      195.23725    
  11494000   167444.36      301.19768      455.23065      5385.9806     -2340.1945      3045.7861      0.87288083     0              0              0              29.285587      29.285587      195.23725    
  11495000   167444.36      300.9781       53.682381      5382.054      -2336.1072      3045.9469      0.87288083     0              0              0              29.285587      29.285587      195.23725    
  11496000   167444.36      300.99647      421.2756       5382.3827     -2336.5823      3045.8003      0.87288083     0              0              0              29.285587      29.285587      195.23725    
  11497000   167444.36      304.41788      984.65491      5443.5639     -2397.6469      3045.917       0.87288083     0              0              0              29.285587      29.285587      195.23725    
  11498000   167444.36      298.68336      275.65255      5341.0198     -2295.2337      3045.7861      0.87288083     0              0              0              29.285587      29.285587      195.23725    
  11499000   167444.36      305.87218     -27.774816      5469.5694     -2424.0934      3045.476       0.87288083     0              0              0              29.285587      29.285587      195.23725    
  11500000   167444.36      302.41809      46.923721      5407.8038     -2362.0571      3045.7467      0.87288083     0              0              0              29.285587      29.285587      195.23725    
  11501000   167444.36      304.43292     -476.66358      5443.8328     -2397.8116      3046.0212      0.87288083     0              0              0              29.285587      29.285587      195.23725    
  11502000   167444.36      305.75047      52.610596      5467.393      -2421.5608      3045.8322      0.87288083     0              0              0              29.285587      29.285587      195.23725    
  11503000   167444.36      300.95266      144.36594      5381.5992     -2335.8263      3045.7729      0.87288083     0              0              0              29.285587      29.285587      195.23725    
  11504000   167444.36      307.66912      14.42917       5501.7021     -2456.0109      3045.6912      0.87288083     0              0              0              29.285587      29.285587      195.23725    
  11505000   167444.36      302.10821      196.51907      5402.2625     -2356.3243      3045.9382      0.87288083     0              0              0              29.285587      29.285587      195.23725    
  11506000   167444.36      300.99125     -390.0436       5382.2892     -2336.1723      3046.1169      0.87288083     0              0              0              29.285587      29.285587      195.23725    
  11507000   167444.36      302.77232      40.83039       5414.1382     -2368.2971      3045.8411      0.87288083     0              0              0              29.285587      29.285587      195.23725    
  11508000   167444.36      302.21692      31.979644      5404.2066     -2358.4142      3045.7924      0.87288083     0              0              0              29.285587      29.285587      195.23725    
  11509000   167444.36      303.77777     -410.64402      5432.1175     -2386.2383      3045.8792      0.87288083     0              0              0              29.285587      29.285587      195.23725    
  11510000   167444.36      302.5416      -119.62716      5410.0124     -2364.2615      3045.7509      0.87288083     0              0              0              29.285587      29.285587      195.23725    
Loop time of 2527.67 on 36 procs for 500000 steps with 6000 atoms

Performance: 8.545 ns/day, 2.809 hours/ns, 197.811 timesteps/s, 1.187 Matom-step/s
99.2% CPU use with 36 MPI tasks x no OpenMP threads

MPI task timing breakdown:
Section |  min time  |  avg time  |  max time  |%varavg| %total
---------------------------------------------------------------
Pair    | 302.29     | 320.16     | 339.7      |  57.6 | 12.67
Bond    | 2.6704     | 2.8503     | 3.0825     |   6.5 |  0.11
Kspace  | 1811.9     | 1853.6     | 1885.9     |  38.1 | 73.33
Neigh   | 3.5164     | 3.6017     | 3.7218     |   3.5 |  0.14
Comm    | 305.02     | 320.51     | 343.07     |  65.0 | 12.68
Output  | 0.040163   | 0.048099   | 0.061997   |   3.5 |  0.00
Modify  | 0.92419    | 1.0344     | 1.1527     |   5.6 |  0.04
Other   |            | 25.89      |            |       |  1.02

Nlocal:        166.667 ave         203 max         140 min
Histogram: 2 6 2 7 5 7 4 1 1 1
Nghost:        4896.78 ave        5012 max        4785 min
Histogram: 5 1 0 3 11 5 2 4 4 1
Neighs:        42206.8 ave       51394 max       33310 min
Histogram: 3 1 3 6 5 6 5 4 2 1

Total # of neighbors = 1519443
Ave neighs/atom = 253.2405
Ave special neighs/atom = 2
Neighbor list builds = 2494
Dangerous builds = 0

restart         1000000 restart_${NAME}.1 restart_${NAME}.2
restart         1000000 restart_CO2.1 restart_${NAME}.2
restart         1000000 restart_CO2.1 restart_CO2.2

write_data      ${NAME}_cuboid.data
write_data      CO2_cuboid.data
System init for write_data ...
PPPM initialization ...
  using 12-bit tables for long-range coulomb (../kspace.cpp:342)
  G vector (1/distance) = 0.26789157
  grid = 32 32 128
  stencil order = 5
  estimated absolute RMS force accuracy = 0.00040684454
  estimated relative force accuracy = 1.2252003e-06
  using double precision KISS FFT
  3d grid and FFT values/proc = 16150 4096
Generated 1 of 1 mixed pair_coeff terms from arithmetic mixing rule

quit
