LAMMPS data file via write_data, version 2 Aug 2023, timestep = 11510000, units = real

6000 atoms
2 atom types
4000 bonds
1 bond types
2000 angles
1 angle types

0 29.2855868766536 xlo xhi
0 29.2855868766536 ylo yhi
0 195.237245844357 zlo zhi

Masses

1 15.9994
2 12.0107

Pair Coeffs # lj/cut/coul/long

1 0.156989 3.05
2 0.0536545 2.8

Bond Coeffs # harmonic

1 1028.27 1.16

Angle Coeffs # harmonic

1 55.96 180

Atoms # full

3292 1098 1 -0.35 3.0739668158926197 1.4091708035746977 4.688361284132621 2 -3 0
3293 1098 2 0.7 3.7101433325493045 2.018346173506762 3.9320248611618664 2 -3 0
3294 1098 1 -0.35 4.398667445403105 2.6679128733319812 3.253956869126021 2 -3 0
1061 354 2 0.7 0.3949136522018823 7.902770902669662 3.0201482644791082 -1 2 -1
4839 1613 1 -0.35 5.521413976919077 7.769112074551096 8.457262351120738 2 1 3
1062 354 1 -0.35 0.3982725996333898 9.055758236731698 2.9067494641674525 -1 2 -1
2617 873 1 -0.35 4.538265163956221 0.5278639457822487 1.3735953879406608 2 -2 -2
3454 1152 1 -0.35 0.7594494189542955 5.1113600060680735 6.259610951102187 -1 -4 -2
2618 873 2 0.7 3.7916312691288976 0.5250097458576538 0.5556259625054043 2 -2 -2
1273 425 1 -0.35 2.1632007053734816 1.6425026637721578 8.45283460468625 -1 4 1
3455 1152 2 0.7 0.9874652003181402 5.404187831110278 7.349608684617926 -1 -4 -2
1274 425 2 0.7 1.3100323763669495 2.2387836792584754 8.884673884932191 -1 4 1
1275 425 1 -0.35 0.4686649433006471 2.8719564958093007 9.278671358600725 -1 4 1
1478 493 2 0.7 6.228069017917821 7.782657893310811 2.8275387821543457e-05 0 0 4
4164 1388 1 -0.35 0.057996951146847664 3.708535854970968 59.94898967335226 2 -5 -1
3426 1142 1 -0.35 0.8135893074050784 4.867974837411276 51.03464293277019 3 -3 0
5545 1849 1 -0.35 2.0775358305956497 8.434230880382161 49.878901310257675 6 0 -2
3456 1152 1 -0.35 1.2805191017508373 5.605879745633318 8.461068560232919 -1 -4 -2
1479 493 1 -0.35 5.795126674878881 6.741301906062346 0.300644504159675 0 0 4
2859 953 1 -0.35 0.7106956779046097 1.3939598854171034 1.2053455088394802 0 4 2
4838 1613 2 0.7 4.38613315389997 7.58067933766992 8.225120674788426 2 1 3
4837 1613 1 -0.35 3.2753295325388887 7.391566019875833 7.917892879462355 2 1 3
5061 1687 1 -0.35 3.788864706542137 0.48298981463649826 55.89688294072966 -3 8 -4
5394 1798 1 -0.35 4.685703873779075 1.852134236928996 61.002999470501514 -2 1 2
1158 386 1 -0.35 5.25239839190813 3.2308352826341897 12.287176868675612 1 1 1
1157 386 2 0.7 4.992259462003433 3.9297705640826743 13.16851287376781 1 1 1
1156 386 1 -0.35 4.848527568870481 4.646132300164346 14.042908833533772 1 1 1
4816 1606 1 -0.35 1.5501752968622071 6.355677881595741 11.72764278490571 1 -1 2
3425 1142 2 0.7 0.5046851342885583 5.902400420103071 51.4556345619992 3 -3 0
594 198 1 -0.35 6.799841703684207 3.8220972276111893 8.526895636457466 3 -1 1
493 165 1 -0.35 0.7317446404905606 1.3104415120355517 14.435852957794452 -1 -1 4
4817 1606 2 0.7 0.3968179502254865 6.263469771923319 11.493690599726351 1 -1 2
972 324 1 -0.35 6.59455221121925 7.953938330979848 15.329214043027012 1 1 2
5764 1922 1 -0.35 2.050781746196787 6.840654190150738 16.971740848317356 1 4 -2
5986 1996 1 -0.35 4.6868105635723545 9.707029437811816 53.89342021584864 1 1 2
971 324 2 0.7 7.064293209381172 6.945497528884747 15.685346856076375 1 1 2
494 165 2 0.7 0.9196394200124071 0.6155073302940621 15.341351799614424 -1 -1 4
4365 1455 1 -0.35 6.484912263241968 0.4222496522559659 9.394376779849306 4 1 0
1592 531 2 0.7 0.44745450664137926 6.2483681942979405 36.901952967716525 6 2 -2
5765 1922 2 0.7 1.5267341659946285 6.494444358610733 17.943998367039423 1 4 -2
2750 917 2 0.7 1.1810617727214787 2.9218274496803116 17.47054336002679 0 -3 -2
3246 1082 1 -0.35 6.7863129530010715 2.839229492624271 15.169449223280377 0 1 -5
4069 1357 1 -0.35 7.318865163267722 2.2665433388524305 20.937248294040526 -5 1 0
4809 1603 1 -0.35 2.6583214367143673 8.468885192548331 21.507215287912423 -4 -1 0
257 86 2 0.7 3.576587593913476 2.6125404034750894 20.503958966465525 2 0 2
1196 399 2 0.7 6.127148547788507 6.877208241503863 18.8363433978481 4 2 -3
1195 399 1 -0.35 5.075200949086514 7.136341317774255 18.474197404957653 4 2 -3
3245 1082 2 0.7 6.194560014279721 3.352235184112656 16.067462993834244 0 1 -5
258 86 1 -0.35 3.6302260584304737 3.2185019499605834 19.50855193247567 2 0 2
3244 1082 1 -0.35 5.65104080069143 3.761078689030617 17.023277034531635 0 1 -5
4807 1603 1 -0.35 3.434045759705016 6.300255558118571 21.563860934691906 -4 -1 0
4808 1603 2 0.7 3.037148376195953 7.360616809179996 21.584837240301123 -4 -1 0
1091 364 2 0.7 6.002411186956229 5.520517489285662 23.976877974586365 -2 2 6
1090 364 1 -0.35 5.894537536581967 5.18842581496937 22.85448530722094 -2 2 6
1092 364 1 -0.35 6.024267917038592 5.925300323593654 25.054727428470173 -2 2 6
256 86 1 -0.35 3.471098856777309 2.154341348212194 21.570543293777494 2 0 2
3084 1028 1 -0.35 7.260575011852994 6.689555312134578 40.842370570514056 6 2 -2
1399 467 1 -0.35 6.067345856008679 8.977283323251374 21.040647272502117 6 1 -3
1197 399 1 -0.35 7.1099045117496 6.623668968317136 19.36964080401489 4 2 -3
1400 467 2 0.7 6.3928514977699065 9.229867360287919 22.160931007768358 6 1 -3
2751 917 1 -0.35 0.7191040237018621 2.5137933184148538 18.43935701384794 0 -3 -2
5672 1891 2 0.7 0.2476283115065649 6.518543369584891 29.012627800851472 0 2 0
2749 917 1 -0.35 1.5899791930060532 3.3282189211207194 16.439079778521318 0 -3 -2
5766 1922 1 -0.35 1.124966209423467 6.109889966038927 18.96274618139001 1 4 -2
5770 1924 1 -0.35 0.6825720488265464 4.419345705849974 21.615304471867375 4 -1 -1
1746 582 1 -0.35 1.1478347615650542 6.96985523785477 24.39849254957843 -5 6 2
1591 531 1 -0.35 1.5451233886180833 6.088457833332112 37.351482117227846 6 2 -2
5812 1938 1 -0.35 4.205423288917161 7.941092370363361 23.676358621728717 -4 0 3
1745 582 2 0.7 0.500792952235063 7.124491876703333 25.337829097248406 -5 6 2
5814 1938 1 -0.35 3.9221839113274184 8.511491321458884 25.91292523989632 -4 0 3
1565 522 2 0.7 0.833479061034404 0.9548503344353992 31.248340792694645 -3 1 4
3208 1070 1 -0.35 5.0645717938343715 7.065602272191893 29.799474614006847 2 1 5
2242 748 1 -0.35 4.059205041111381 4.817666316145224 27.260389891051815 -1 5 -1
2384 795 2 0.7 1.838885493071435 0.8504218243898785 23.709535476209904 0 -1 1
5631 1877 1 -0.35 5.370359404717356 1.940163699858274 24.60257729224713 1 4 1
2243 748 2 0.7 3.420700636737393 3.8538492703161746 27.35313731594821 -1 5 -1
4655 1552 2 0.7 0.06726836210008151 0.21503861894433157 57.353227742175456 4 3 -2
3209 1070 2 0.7 4.413445537559029 7.944758874414789 30.110983353329857 2 1 5
3210 1070 1 -0.35 3.6981558300363706 8.699559582874626 30.62068517772864 2 1 5
2244 748 1 -0.35 2.811035346957154 2.864647358024005 27.415584829719847 -1 5 -1
5630 1877 2 0.7 6.055030265312479 1.2415590304542368 24.015703625361162 1 4 1
3137 1046 2 0.7 4.572121414416787 3.8705236909857854 31.33212892524243 1 2 -3
2385 795 1 -0.35 1.1854387217246993 1.7013612294225773 24.172648329986366 0 -1 1
5813 1938 2 0.7 4.065779685383097 8.160534961615243 24.814893232172118 -4 0 3
628 210 1 -0.35 6.867776476990824 9.000568762950527 31.752905879806693 3 -3 0
5671 1891 1 -0.35 1.3874215233639475 6.23743468450839 28.897423712505354 0 2 0
3138 1046 1 -0.35 3.798460748978231 4.695859314759352 31.64793014331624 1 2 -3
629 210 2 0.7 7.137550383589717 8.125065850042178 32.47034047340631 3 -3 0
1564 522 1 -0.35 1.042070696648938 2.0548046427866438 30.965795043574996 -3 1 4
979 327 1 -0.35 5.837807450405416 2.7154192928162213 55.89201543553035 1 -3 3
5847 1949 1 -0.35 6.432902736609037 0.702677754161623 53.44892582096533 -1 2 0
5542 1848 1 -0.35 0.059327379428807406 3.6892795138031307 35.7230855831337 -4 2 0
3136 1046 1 -0.35 5.337605067970332 3.0311579681978174 31.051253011247738 1 2 -3
4650 1550 1 -0.35 3.1810202804448444 2.061619075036369 35.7370309784718 -2 0 1
4648 1550 1 -0.35 5.259018009275627 1.242018000236708 35.00274284366335 -2 0 1
4649 1550 2 0.7 4.242803758206447 1.6492633940842036 35.438046835960385 -2 0 1
4391 1464 2 0.7 0.5880183373372043 4.3427539752821875 64.949608047394 2 -3 -1
2706 902 1 -0.35 1.5189313576929653 9.407743427428514 35.049444967978154 5 4 3
3103 1035 1 -0.35 5.083929815837863 9.236161928910771 38.94329866720768 -1 4 3
4132 1378 1 -0.35 4.72007766109525 2.806828618663879 44.736748226195 3 1 0
4133 1378 2 0.7 5.01944793384946 2.2871503859895723 43.7366973686904 3 1 0
2772 924 1 -0.35 0.005137273084552376 5.233937276945329 33.187068060103265 0 -2 3
3004 1002 1 -0.35 1.3537726286952574 5.956717539288418 43.53291305976701 3 3 -4
4134 1378 1 -0.35 5.308589793103272 1.7991003801954415 42.7266775272346 3 1 0
5713 1905 1 -0.35 4.925801654420484 9.690748924547346 48.9036876793075 -4 -1 0
3005 1002 2 0.7 0.3345638972085894 6.083651192652983 44.11764722191934 3 3 -4
1975 659 1 -0.35 1.8637007872322002 4.29464012189825 47.32803128967349 -1 2 -3
72 24 1 -0.35 5.25767950490032 7.716320813962028 45.71011388196197 -2 2 0
71 24 2 0.7 5.647262105251425 6.781886095085731 46.33473296196504 -2 2 0
3806 1269 2 0.7 0.9061361086437708 0.7456518300495332 46.44177335731275 -2 5 3
3807 1269 1 -0.35 0.1636966045075874 0.9153373349370232 45.55367473659977 -2 5 3
3805 1269 1 -0.35 1.6897539348691273 0.5039863960386527 47.234986984256174 -2 5 3
70 24 1 -0.35 6.093131576210831 5.962278203669939 46.99917924663451 -2 2 0
2236 746 1 -0.35 4.659999185209063 1.1989007514158867 50.65936977794778 0 1 2
2237 746 2 0.7 5.323865147537269 0.7827982127927143 49.79831492287423 0 1 2
1976 659 2 0.7 2.591284303609074 4.362384040544459 48.209439701505765 -1 2 -3
4162 1388 1 -0.35 1.8448702189482138 2.5082349742751027 58.97036833575524 2 -5 -1
266 89 2 0.7 7.187566935907528 1.363348041450135 40.27560256738245 3 2 1
1541 514 2 0.7 3.9052787588801365 8.32690778101593 60.07686423715831 1 -3 4
1401 467 1 -0.35 6.715576053825123 9.378774498256867 23.286283414481666 6 1 -3
1686 562 1 -0.35 6.665491988910326 6.058385581363244 59.37413603372816 2 1 3
3424 1142 1 -0.35 0.29047040321833006 7.001994560998466 51.79599719566763 3 -3 0
1060 354 1 -0.35 0.34304452897744014 6.794415582300433 3.2024101195539165 -1 2 -1
1977 659 1 -0.35 3.3086746708216332 4.479683896953732 49.122988051708944 -1 2 -3
265 89 1 -0.35 6.527672885993583 1.7866867107006181 39.41192191220353 3 2 1
98 33 2 0.7 6.73921292400763 6.932020228748234 55.162158408292825 1 -2 -2
980 327 2 0.7 5.5727237774316585 2.909879575945995 57.035469765031344 1 -3 3
2858 953 2 0.7 0.27788378527512064 1.6366219053801658 0.1857160573198765 0 4 2
3858 1286 1 -0.35 6.671345822009517 7.321241484247514 52.11172797166521 -1 -2 -1
97 33 1 -0.35 6.9274776972533125 7.888824870930292 55.77605273299711 1 -2 -2
2863 955 1 -0.35 7.184219963833117 7.87160903714663 61.8122645168838 -1 -2 -3
3857 1286 2 0.7 6.262556312281271 6.9413467397755175 51.06061159947844 -1 -2 -1
2188 730 1 -0.35 2.3698074732291565 4.041149959630993 53.45160558403243 -1 1 2
3856 1286 1 -0.35 5.758634085175371 6.7123200658669315 50.07727119259522 -1 -2 -1
4390 1464 1 -0.35 1.0388840160288668 4.8481332254698035 63.99997367340935 2 -3 -1
2189 730 2 0.7 3.3048594655184704 3.325508276870301 53.55392960012605 -1 1 2
2190 730 1 -0.35 4.219975813508553 2.614956122096239 53.56614424219619 -1 1 2
3488 1163 2 0.7 4.899161079696284 5.904760783726588 64.80046118125965 5 1 1
981 327 1 -0.35 5.4474205478536994 3.3408129960753152 58.125549263908866 1 -3 3
99 33 1 -0.35 6.54004754072703 5.993306949750351 54.54946137823652 1 -2 -2
5629 1877 1 -0.35 6.792588276424075 0.5386174088333114 23.46148950753085 1 4 1
268 90 1 -0.35 5.974339916578315 2.4520977889984894 5.926063106955716 0 4 1
1542 514 1 -0.35 4.281343817204802 8.61597363816314 61.14656889600607 1 -3 4
269 90 2 0.7 6.181839646514372 1.2971287978968185 5.999152118536988 0 4 1
5546 1849 2 0.7 2.2889932930091947 9.190646757975749 50.718287997887344 6 0 -2
2220 740 1 -0.35 3.421505090303265 0.11889505958827183 64.77811656639342 -1 -3 -2
3489 1163 1 -0.35 4.471254028172451 4.855488397010981 64.64681947167652 5 1 1
4836 1612 1 -0.35 0.8802826822318103 0.9947426100055569 61.70937800266612 2 2 -3
204 68 1 -0.35 0.2937918038557016 8.658113806893995 62.126518739753905 1 2 -1
5392 1798 1 -0.35 6.170549921516069 3.5900853932148142 61.40657747622278 -2 1 2
4835 1612 2 0.7 0.9881793648962903 0.30542688773507204 60.79071356799463 2 2 -3
5393 1798 2 0.7 5.409936068172237 2.725161393181414 61.19228596910884 -2 1 2
4163 1388 2 0.7 0.9337754650285166 3.104015230291814 59.3960473417255 2 -5 -1
1540 514 1 -0.35 3.569457172154944 7.999481524024079 59.00516658438247 1 -3 4
3100 1034 1 -0.35 6.676102994142569 8.514142227597967 11.549612453792983 3 2 1
270 90 1 -0.35 6.303826304089815 0.12888771228820106 6.065005812540947 0 4 1
4208 1403 2 0.7 2.368598992345355 9.36517919259032 16.413880045135333 -3 3 2
4207 1403 1 -0.35 2.13848695597249 9.250390069099884 15.282939917515868 -3 3 2
3232 1078 1 -0.35 0.15773090729662165 9.336798817323661 29.296295374503718 0 -1 2
4209 1403 1 -0.35 2.5885652282601384 9.521838532273037 17.542909603994747 -3 3 2
4824 1608 1 -0.35 1.6337606918094523 0.24202098175131473 10.785082824649491 4 -3 1
2462 821 2 0.7 0.2834431452528345 0.18493355979636844 36.61077451932309 3 1 4
2238 746 1 -0.35 6.04605144487733 0.357421624572624 48.949626375897985 0 1 2
3487 1163 1 -0.35 5.293315561783548 6.973169799957934 65.01647400657319 5 1 1
5038 1680 1 -0.35 3.9287588361621792 5.565079003325809 68.67788169688652 3 -1 0
5317 1773 1 -0.35 2.1489186910016387 8.596464155193908 72.90437115717893 4 2 2
5318 1773 2 0.7 2.4062039360777336 8.051684375206797 73.88034117098098 4 2 2
4053 1351 1 -0.35 6.472450054711595 6.213380032956625 70.59274332711492 -4 2 -2
5444 1815 2 0.7 3.408557575732571 2.0691972854922662 124.03948272734257 -10 1 0
5443 1815 1 -0.35 3.1767599956530175 2.5211104131940014 125.11195734328813 -10 1 0
5039 1680 2 0.7 4.393391062055899 6.5958504849350925 68.51638357659536 3 -1 0
5040 1680 1 -0.35 4.900680930500528 7.64448759095465 68.32041676571463 3 -1 0
5248 1750 1 -0.35 6.027695074966395 0.13325263108842747 88.72695682245661 0 -1 2
3776 1259 2 0.7 1.5914973897209224 1.8111705357420003 68.35466152045424 1 -2 -3
235 79 1 -0.35 4.332629111161847 4.500356465666781 72.19257532889097 -1 3 0
4392 1464 1 -0.35 0.17692269476898445 3.7917424493222796 65.8860466051636 2 -3 -1
4039 1347 1 -0.35 7.256401681055052 4.670534172154922 98.76536187269237 1 -4 -1
3775 1259 1 -0.35 0.8548323430741774 0.9897427438035084 68.73957521539268 1 -2 -3
236 79 2 0.7 4.47155351145505 3.690127227443628 71.36213962882987 -1 3 0
237 79 1 -0.35 4.671864370526802 2.864468066659794 70.56448206450655 -1 3 0
3327 1109 1 -0.35 6.03956342492552 2.346306699254359 66.62257400669202 1 -5 2
3777 1259 1 -0.35 2.2297517458724463 2.674748457129232 67.97291631088665 1 -2 -3
3326 1109 2 0.7 6.343250828743016 2.2893748343922025 67.76255535347148 1 -5 2
2511 837 1 -0.35 0.3221241664185647 0.4794001941717766 122.24573476889401 1 1 0
3276 1092 1 -0.35 5.327588092863689 0.2017548620130995 116.54016819063047 3 2 0
2013 671 1 -0.35 1.3515327106475934 9.465352751278981 83.1376345291611 1 1 0
5319 1773 1 -0.35 2.6611022059346987 7.475045116646225 74.8282177952414 4 2 2
1853 618 2 0.7 0.45447930216103843 0.14650940637570542 72.68330831862919 3 1 1
5445 1815 1 -0.35 3.5449646874117 1.5707492994746126 122.98330421220767 -10 1 0
4459 1487 1 -0.35 4.826977626255716 9.41438355632645 79.15602922407086 4 0 4
4460 1487 2 0.7 3.9347506377885337 9.379678270234908 78.42496420714322 4 0 4
1718 573 2 0.7 1.7689821371715724 3.4304469712134664 76.00951117039783 2 2 -4
3325 1109 1 -0.35 6.695112044371803 2.2360883419394435 68.8458446217061 1 -5 2
2526 842 1 -0.35 0.37328178213265245 7.35050695003682 78.92894166265162 2 4 1
3490 1164 1 -0.35 4.977488203761209 5.483389884152222 77.82573447115877 -2 2 3
3491 1164 2 0.7 4.996240627288406 5.748340133026856 78.98109962844153 -2 2 3
3492 1164 1 -0.35 4.921589341325295 6.069545001714874 80.08750701002516 -2 2 3
5311 1771 1 -0.35 1.7414248001119625 8.995221846154228 98.26722462985143 2 1 2
1719 573 1 -0.35 1.5311638756042933 3.4519599160577044 77.16584765383399 2 2 -4
5567 1856 2 0.7 4.61523067139227 8.069421658792228 129.17925541863218 1 -3 2
1852 618 1 -0.35 0.7493724318524254 0.4127371539483528 71.5742544800554 3 1 1
3770 1257 2 0.7 0.060905735040446274 0.9914814647934799 96.01978782672053 1 2 4
1717 573 1 -0.35 1.9180957516412045 3.5082341259861183 74.85240592117488 2 2 -4
3451 1151 1 -0.35 3.0683914960513263 6.9089924561935545 125.5422360139435 -2 3 7
2225 742 2 0.7 6.458387700725398 9.032221149946345 73.75339793018837 3 -1 3
4006 1336 1 -0.35 0.893678266993799 6.943153242777013 128.56945447479634 -3 -5 0
3480 1160 1 -0.35 5.565753148040311 1.1221758367708625 83.42301347054423 -1 3 -1
78 26 1 -0.35 6.708655652718248 7.016814890925375 86.32413454698069 3 1 2
76 26 1 -0.35 5.195932031369561 8.213152202194157 84.96455771381798 3 1 2
77 26 2 0.7 5.94014972779067 7.58343804188401 85.63066344925282 3 1 2
3479 1160 2 0.7 4.746017156367035 0.3258962733905783 83.59642452448944 -1 3 -1
3779 1260 2 0.7 0.46665343991435987 8.165218133190603 121.89577376712843 -4 2 -2
2574 858 1 -0.35 1.36055284260908 0.7543474457467398 88.84642438841995 0 -1 -1
2573 858 2 0.7 1.532136207613568 1.8553103023110395 89.17076238122974 0 -1 -1
2323 775 1 -0.35 2.5341548305125166 4.794411563902076 86.41813120547174 1 3 3
2324 775 2 0.7 3.2513066414627576 4.9781076589272235 85.53953567235185 1 3 3
2572 858 1 -0.35 1.6905319596030777 2.9393500200492504 89.5921719909665 0 -1 -1
3059 1020 2 0.7 6.179456677623138 3.527012883382111 85.3727068297789 2 3 4
3058 1020 1 -0.35 6.807733792864916 3.7775287739569814 84.4075110435286 2 3 4
3060 1020 1 -0.35 5.508705296789 3.4332592918710922 86.31697426933698 2 3 4
1134 378 1 -0.35 0.07991408437755389 2.636455871596606 98.57768255363904 5 -2 1
45 15 1 -0.35 6.43984168831922 0.8144016622168531 127.40759816841968 -3 2 1
3237 1079 1 -0.35 6.427192452377163 4.995058114571186 107.38202979506023 3 -1 -2
5358 1786 1 -0.35 0.7815414494940366 0.42241874433595944 83.36709001644898 1 2 3
2325 775 1 -0.35 3.942597995815463 5.1136625967689495 84.61721850787447 1 3 3
5568 1856 1 -0.35 4.543859891427338 7.198603108955543 129.87120310256637 1 -3 2
4370 1457 2 0.7 7.177280762086411 4.320094322681202 93.56161906843698 0 3 -2
450 150 1 -0.35 7.29469723534818 6.385276732532083 128.42356471344786 -3 2 1
3780 1260 1 -0.35 1.3506796222012636 7.423025087726431 121.58184391811272 -4 2 -2
3140 1047 2 0.7 2.309088851574319 5.802290535427591 95.28465454011128 -3 1 2
3139 1047 1 -0.35 2.366946558336122 4.648759056363291 95.25108909442963 -3 1 2
5312 1771 2 0.7 0.970349791651339 9.111298073173245 97.41250422438864 2 1 2
4677 1559 1 -0.35 4.295991499017876 2.556359594034718 91.09670730732763 -3 -2 2
4676 1559 2 0.7 5.147049607084212 2.0005494829493897 91.6546761226641 -3 -2 2
571 191 1 -0.35 0.15476622728141362 3.1449215560939785 92.76375917190663 -2 0 1
3453 1151 1 -0.35 4.908961315052524 5.5714589341216625 125.91340900528392 -2 3 7
3908 1303 2 0.7 5.703983878906433 7.983303334097695 96.21530389220939 6 4 -1
958 320 1 -0.35 5.713957851609573 5.441457771446461 90.74252667292285 1 -2 2
960 320 1 -0.35 4.5482127207520096 5.428896136777551 88.70600307364369 1 -2 2
959 320 2 0.7 5.138584621071908 5.477001067802961 89.72962752925932 1 -2 2
3907 1303 1 -0.35 6.314544273775276 7.322378764709911 96.9429443027913 6 4 -1
4921 1641 1 -0.35 4.139811738854171 1.196445174953779 96.56961443052123 3 0 2
4922 1641 2 0.7 4.529930881006899 2.306102615199503 96.58550328939174 3 0 2
3141 1047 1 -0.35 2.2140787505177744 6.9361233264929245 95.45568521001377 -3 1 2
3909 1303 1 -0.35 5.152378592207675 8.673134137004501 95.44068359596037 6 4 -1
3769 1257 1 -0.35 0.9369376793144429 1.616425258584112 95.64188627305127 1 2 4
4371 1457 1 -0.35 6.170723440060046 4.80090635207278 93.94608385870563 0 3 -2
4923 1641 1 -0.35 4.916360343061917 3.3829862179597896 96.74635070949701 3 0 2
4675 1559 1 -0.35 6.0063225503435085 1.4575459439617031 92.21527424703933 -3 -2 2
5313 1771 1 -0.35 0.17588893325239852 9.223376288853018 96.57254081578766 2 1 2
1741 581 1 -0.35 3.260097688279447 8.678465809232051 101.00658561159229 2 2 1
4947 1649 1 -0.35 0.593548850621563 7.51485033022078 102.51682914040161 -3 -2 -1
2614 872 1 -0.35 3.9981353846961283 3.177479275150608 104.18388075474101 -3 0 1
2616 872 1 -0.35 2.4417620413737957 2.2857708152640597 102.70625788263595 -3 0 1
4945 1649 1 -0.35 1.1152750064533452 6.154980271933314 100.66692420850441 -3 -2 -1
4946 1649 2 0.7 0.8927268851086269 6.866300727617077 101.57023266133939 -3 -2 -1
2615 872 2 0.7 3.2621878636610027 2.689699418492103 103.42331133662832 -3 0 1
2280 760 1 -0.35 3.050110044110478 2.3079027540452213 99.50241274398147 -2 0 1
5383 1795 1 -0.35 2.440299233591031 4.702141109916139 98.3352042473445 4 -1 0
3415 1139 1 -0.35 4.494431244300578 6.170202055615295 102.89723144183333 0 3 3
3416 1139 2 0.7 5.471956051090558 5.7658668539279105 103.39443670102806 0 3 3
5384 1795 2 0.7 3.460657958255579 4.824838605445364 98.8818772765898 4 -1 0
2694 898 1 -0.35 0.547100720854034 6.915550723231078 86.88152609934302 -4 1 2
3022 1008 1 -0.35 5.630419683594165 8.182039912498336 104.67415720029496 1 4 0
3417 1139 1 -0.35 6.41865528718204 5.326684088142552 103.88965897616877 0 3 3
3023 1008 2 0.7 4.552449588155785 8.59764101545822 104.75341018822174 1 4 0
4106 1369 2 0.7 3.403073142887173 3.925753107146323 128.82568586542777 0 6 1
5385 1795 1 -0.35 4.424164522769228 5.081974801234244 99.44724083063537 4 -1 0
2279 760 2 0.7 2.3854469091499744 1.3595993716715258 99.37139830959265 -2 0 1
2278 760 1 -0.35 1.7541311384589746 0.37511088851594393 99.25658380056443 -2 0 1
2427 809 1 -0.35 6.576941960905461 1.4468941810049145 111.11844992587122 -4 -3 3
2298 766 1 -0.35 2.2512571767558986 6.995879997249387 109.7387143330419 -3 2 -1
2297 766 2 0.7 1.405193449951892 7.107253050817844 108.96250015084425 -3 2 -1
44 15 2 0.7 7.234085531662152 1.5648573019953484 127.8152907542635 -3 2 1
4075 1359 1 -0.35 2.4609720777360202 0.4717853199265126 115.07696744216695 3 -3 -2
2426 809 2 0.7 6.516081340262207 0.36411847645695317 111.53299482102794 -4 -3 3
2296 766 1 -0.35 0.6164710236189285 7.358794230411149 108.13468568577287 -3 2 -1
4135 1379 1 -0.35 0.8868018818222463 8.689332922650028 118.03359639770585 -3 4 -2
3236 1079 2 0.7 5.929417431174758 4.231565349551217 108.09639135302942 3 -1 -2
3235 1079 1 -0.35 5.473237265618354 3.494552619782415 108.86297421073819 3 -1 -2
697 233 1 -0.35 3.141685813823539 5.537304696574098 114.4527189205161 1 4 -1
198 66 1 -0.35 6.974959125187373 3.1059165947604574 123.54721534062793 -3 3 2
925 309 1 -0.35 0.9752669969415861 5.245549387095795 117.31207645927026 -4 5 -2
2224 742 1 -0.35 5.82503834225422 9.095344578200233 72.76249070574656 3 -1 3
1948 650 1 -0.35 6.513563873292943 2.563766810532747 114.83235737952704 5 0 -3
926 309 2 0.7 0.335668734382723 5.727595224916679 116.52116844099758 -4 5 -2
2226 742 1 -0.35 7.124308206765587 8.967346840847505 74.68348774169942 3 -1 3
3024 1008 1 -0.35 3.484093332884411 9.041715517433369 104.83439170780845 1 4 0
3452 1151 2 0.7 3.9826557999709515 6.240323974627235 125.74028810453179 -2 3 7
698 233 2 0.7 2.8213770956992197 4.921440900697155 113.54349694979676 1 4 -1
699 233 1 -0.35 2.505131322330606 4.086955049912726 112.78408877855045 1 4 -1
3871 1291 1 -0.35 2.6746240276633553 8.750860656246752 115.74684616649381 1 2 -1
3872 1291 2 0.7 3.630448271097593 8.347092441624753 116.30236843095994 1 2 -1
3873 1291 1 -0.35 4.517623564546553 7.956674036890075 116.89776855698494 1 2 -1
3993 1331 1 -0.35 6.437176961141148 1.2822776303047148 120.82397470865166 -2 2 1
3992 1331 2 0.7 7.082505468812745 2.187092545463844 120.42144857624973 -2 2 1
4461 1487 1 -0.35 3.0920196670577886 9.377981580480903 77.61930153725004 4 0 4
4136 1379 2 0.7 1.1578273573755662 9.47312754090426 118.86118310236179 -3 4 -2
5566 1856 1 -0.35 4.81304591320271 9.011926216006271 128.5223560659893 1 -3 2
4105 1369 1 -0.35 4.011139097145469 3.069122489388146 129.31237668593587 0 6 1
4107 1369 1 -0.35 2.703497542215299 4.692516628017951 128.26145688764012 0 6 1
3918 1306 1 -0.35 7.27621345902571 1.84554832856235 73.09230944409934 0 2 -3
5796 1932 1 -0.35 0.3505589205774507 0.2691945103521134 65.09515969995452 -1 -2 2
4613 1538 2 0.7 4.434426032709896 6.1709783396364495 133.1664716694844 -5 1 4
4612 1538 1 -0.35 3.5295906769177776 6.560205731018601 133.8348560443902 -5 1 4
4614 1538 1 -0.35 5.215126222538506 5.814140068760948 132.37449734796485 -5 1 4
515 172 2 0.7 3.1457495847561305 2.4528911892098564 134.33305091616194 3 -1 -2
514 172 1 -0.35 3.2651284187912983 1.538645274293346 135.0416278628683 3 -1 -2
761 254 2 0.7 0.7008699683281036 6.300437999412389 134.44914944947476 0 -3 -1
762 254 1 -0.35 1.0326667334340538 5.291879806744873 134.85878572270184 0 -3 -1
5502 1834 1 -0.35 0.18408276891399203 7.347475295657712 184.04315928877 -1 -3 -2
516 172 1 -0.35 2.9689786137653145 3.4044033376748946 133.6509959562039 3 -1 -2
760 254 1 -0.35 0.44591754867257266 7.401980769609506 134.1304364186956 0 -3 -1
5221 1741 1 -0.35 2.886486694026854 3.6713384467140355 137.2956773458563 2 4 3
5222 1741 2 0.7 3.416420333061631 4.712088508984754 137.21860948701652 2 4 3
3205 1069 1 -0.35 0.5684317984737255 0.5065115755456809 131.58637537302909 2 0 0
3672 1224 1 -0.35 0.4356449062163502 3.5285428459840755 145.84274750572988 2 2 -1
5223 1741 1 -0.35 3.973534884296972 5.728105611748859 137.03761992592698 2 4 3
3207 1069 1 -0.35 2.536594054408598 0.41855667048592715 130.31892123144615 2 0 0
4098 1366 1 -0.35 7.121305490477574 7.903059443561894 136.39486829884737 3 0 0
4097 1366 2 0.7 6.204167719618192 8.103183808442154 137.03613433950414 3 0 0
5738 1913 2 0.7 6.725949613980698 0.36104118031925553 134.90983265379876 1 2 -3
1366 456 1 -0.35 0.25076298681040915 9.443436746733212 155.34363821109014 -2 2 1
1122 374 1 -0.35 1.7202194277029557 2.0290013826238433 142.36531169081132 0 3 1
5700 1900 1 -0.35 0.8566664994259899 5.392078206471686 138.96950189757666 6 -1 0
4794 1598 1 -0.35 1.0170012327253395 1.3228067700422175 137.5468726693065 5 6 -2
261 87 1 -0.35 3.803799242389767 6.617272266912094 145.36454387245578 3 -6 1
1120 374 1 -0.35 2.202177045828691 2.0895244367335266 140.09977265523196 0 3 1
1121 374 2 0.7 1.9934569361502683 2.0482682075819714 141.25032615949056 0 3 1
260 87 2 0.7 3.4614788793804285 7.562444935471688 145.91288763742205 3 -6 1
3279 1093 1 -0.35 6.065450365822125 8.926389455664289 143.80692443544856 2 5 2
259 87 1 -0.35 3.1960079588830106 8.556234612170423 146.4462172155543 3 -6 1
5283 1761 1 -0.35 3.205100984210242 5.543058951165977 140.94435991200064 3 0 0
5699 1900 2 0.7 1.3210386559245346 6.304511469302099 138.43492926630796 6 -1 0
3360 1120 1 -0.35 3.9301480120673484 2.975928821610212 144.71288574954346 1 -1 -2
5282 1761 2 0.7 4.241922512814831 5.84630310317893 141.3789647735964 3 0 0
4793 1598 2 0.7 0.5089702846094462 2.3083194996125465 137.17224934648937 5 6 -2
5698 1900 1 -0.35 1.7610535696526706 7.260534438247432 137.95054384574607 6 -1 0
2619 873 1 -0.35 3.0160910542712007 0.4277443310435269 194.9341806048423 2 -2 -3
3359 1120 2 0.7 4.861158694247962 3.6463838929784553 144.79762416847458 1 -1 -2
134 45 2 0.7 5.391073665009587 1.3860753404910446 139.00101687552078 1 1 1
133 45 1 -0.35 5.602055979302995 2.223045417298526 138.24498114376786 1 1 1
3997 1333 1 -0.35 6.736919272204813 9.427571394949739 140.74120693520283 0 5 -3
135 45 1 -0.35 5.1278987139646794 0.5258378102860235 139.73265017982206 1 1 1
3358 1120 1 -0.35 5.811179062769446 4.279841819447373 144.7449670810397 1 -1 -2
3206 1069 2 0.7 1.5237106940919485 0.4768351049342071 130.890454300687 2 0 0
281 94 2 0.7 0.841476034247338 9.475874661220946 147.6950979644301 2 -4 0
1998 666 1 -0.35 0.02214127146928746 6.886062770898864 187.12365555374745 4 -1 -1
3663 1221 1 -0.35 6.655442068954488 7.692450789162641 150.1909944940252 3 0 -1
2283 761 1 -0.35 4.465487231476891 3.7898441811482426 148.02113988312888 2 -3 -1
2281 761 1 -0.35 2.9084361811413166 5.125612538315159 148.99936322950344 2 -3 -1
2282 761 2 0.7 3.7167878272384045 4.4641470594508865 148.53275899504084 2 -3 -1
861 287 1 -0.35 1.0509819950673767 8.066491484358744 151.7807141184366 -2 -1 0
860 287 2 0.7 1.7109113321573521 7.123977232402918 151.9068822427006 -2 -1 0
859 287 1 -0.35 2.3885912497819763 6.210984315724951 151.99602709631122 -2 -1 0
4967 1656 2 0.7 5.500583608091178 4.36546490030537 152.50931564406693 8 0 -1
880 294 1 -0.35 0.7952949668160764 3.5532934485102214 168.92299104680757 -4 0 -4
4966 1656 1 -0.35 5.683931811408868 4.252485328821973 151.33077277431917 8 0 -1
4968 1656 1 -0.35 5.270663237405688 4.423221992211027 153.6419807547357 8 0 -1
3706 1236 1 -0.35 0.33181590670998307 1.2980358560072032 164.6673909248504 0 0 3
3121 1041 1 -0.35 7.142610225961477 1.866013536009992 170.1168164772955 -4 -3 2
2824 942 1 -0.35 2.3272663390186663 0.8655782217907213 147.14350113282663 0 5 -2
1004 335 2 0.7 7.167514356838668 3.583220753263681 159.30695336284668 -6 -2 1
282 94 1 -0.35 0.7817230825817866 8.357894552399063 147.98114264566465 2 -4 0
5434 1812 1 -0.35 0.9397761688581263 1.4919043769301652 150.2153388528294 2 3 0
4919 1640 2 0.7 4.790263684790287 0.2464425360389213 184.01132311858748 0 5 -1
5435 1812 2 0.7 1.9055947928917802 2.043378178275566 150.51475106412224 2 3 0
3662 1221 2 0.7 7.1407707026053275 7.522870537569486 149.14992719042348 3 0 -1
4768 1590 1 -0.35 3.8940809507480503 2.6707946177498636 193.28467710066826 -1 3 1
5436 1812 1 -0.35 2.858236909071339 2.568859936538859 150.86356574597914 2 3 0
4908 1636 1 -0.35 1.2761219103359875 5.325368483277523 154.659217245522 2 1 5
5134 1712 1 -0.35 0.007914404803720743 6.170511024733483 159.47197919661355 -1 3 -2
3813 1271 1 -0.35 6.836940696041141 2.448727601655779 163.23891192329964 -2 3 4
4199 1400 2 0.7 7.054725985580934 7.192238203606169 161.95703114725077 -5 4 -1
4907 1636 2 0.7 1.5234772091865876 4.262505762728899 154.24266685132554 2 1 5