LAMMPS data file via write_data, version 2 Aug 2023, timestep = 10000000, units = real

6000 atoms
2 atom types
4000 bonds
1 bond types
2000 angles
1 angle types

0.42998697434593325 55.482895025634804 xlo xhi
0.42998697434593325 55.482895025634804 ylo yhi
0.42998697434593325 55.482895025634804 zlo zhi

Masses

1 15.9994
2 12.0107

Pair Coeffs # lj/cut/coul/long

1 0.156989 3.05
2 0.0536545 2.8

Bond Coeffs # harmonic

1 1028.27 1.16

Angle Coeffs # harmonic

1 55.96 180

Atoms # full

4858 1620 1 -0.35 9.00329081576271 4.476856311434958 6.552126844191799 -2 -1 -2
4859 1620 2 0.7 9.994013774529659 4.616704009538898 5.944245795592817 -2 -1 -2
4860 1620 1 -0.35 11.028224721317926 4.817931537083759 5.419610196214754 -2 -1 -2
1007 336 2 0.7 6.466009416956741 4.845035396687561 2.4463649737170075 0 2 2
1778 593 2 0.7 13.786630638430527 3.055553411408446 9.072036680164777 3 0 -4
4187 1396 2 0.7 8.416184673462013 1.543832543589631 8.835471172583922 1 0 1
3287 1096 2 0.7 9.91118894519185 7.673499242347681 3.5662501553341905 0 2 0
3286 1096 1 -0.35 10.815626790412159 8.406930841754289 3.7854061907170378 0 2 0
3288 1096 1 -0.35 9.069359059538789 6.944361192991828 3.3452241430509986 0 2 0
271 91 1 -0.35 11.869438446188802 5.544426995427981 2.139253900789694 -3 -1 2
4188 1396 1 -0.35 9.125544062278271 1.784779782041976 7.96839654387149 1 0 1
1897 633 1 -0.35 11.717334572354906 7.697158919133332 8.364057406944948 -1 -1 2
1898 633 2 0.7 11.898488412665486 6.545672351763408 8.348501734093158 -1 -1 2
1008 336 1 -0.35 6.24154084976315 5.786111776609655 1.800890239790079 0 2 2
1006 336 1 -0.35 6.6085314304300145 3.887606068632351 3.10721291376672 0 2 2
4266 1422 1 -0.35 4.05544582862726 7.613086332297705 2.9002444625480943 -4 1 0
1899 633 1 -0.35 12.035812808711787 5.387708589589106 8.300670637977891 -1 -1 2
4265 1422 2 0.7 4.446867500307042 8.659778540776356 3.220683479375975 -4 1 0
934 312 1 -0.35 5.351297833984401 4.65886193650695 6.466690356458814 1 -1 0
4154 1385 2 0.7 1.6968975265982444 6.796150088852904 1.42516029755433 1 -1 0
5579 1860 2 0.7 1.5019280249382823 1.901439263214003 1.1109451351884712 5 3 3
3367 1123 1 -0.35 8.968453981888265 8.024088327847068 6.273802405764797 -1 -3 -4
34 12 1 -0.35 13.098954684136494 7.80562528784724 5.269099336916326 3 -3 -3
35 12 2 0.7 13.21899121548491 8.936748573224545 4.935723797206313 3 -3 -3
3368 1123 2 0.7 8.465894043690698 7.4422335312895225 7.1645704698657875 -1 -3 -4
3369 1123 1 -0.35 7.991132984352254 6.913685601148778 8.06214672123194 -1 -3 -4
5578 1860 1 -0.35 1.6801115786118594 2.9074578593972444 1.6661766381267304 5 3 3
936 312 1 -0.35 5.871128863786272 3.003505501074977 8.018321445884476 1 -1 0
935 312 2 0.7 5.574114480970751 3.786906478069199 7.199572119997949 1 -1 0
2054 685 2 0.7 13.612645128633073 0.6091893764140928 5.40961474966161 0 2 0
272 91 2 0.7 11.762590658405474 4.396919211094522 1.9608524572143626 -3 -1 2
273 91 1 -0.35 11.647137422459789 3.29346055678733 1.637378018495287 -3 -1 2
1464 488 1 -0.35 10.544063130827878 0.9210119390818174 3.4846288098767553 0 0 1
2053 685 1 -0.35 12.614227606567802 1.200078926657841 5.617920285534535 0 2 0
1777 593 1 -0.35 13.603441299443318 2.5418960880948367 8.081303179703287 3 0 -4
3912 1304 1 -0.35 7.481835209154287 1.909286408050652 5.449854576825967 -4 -5 0
4153 1385 1 -0.35 1.0389640387198882 7.306892957697232 2.243083997506913 1 -1 0
5580 1860 1 -0.35 1.3894308618513247 0.8514442542790823 0.6169109854889265 5 3 3
1671 557 1 -0.35 8.466827685440904 4.044793858736764 0.7023007838689341 1 0 -1
4155 1385 1 -0.35 2.476693944136783 6.469986477093205 0.643334757879773 1 -1 0
3911 1304 2 0.7 7.2782009035931265 1.119923521246708 4.59770928651181 -4 -5 0
4584 1528 1 -0.35 3.6468115283780627 0.7714711828976988 7.0803872312634795 -4 -2 -2
4264 1422 1 -0.35 4.788851149195909 9.727553847445328 3.5632593870998686 -4 1 0
36 12 1 -0.35 13.409913591600931 10.023984944020734 4.560655955312613 3 -3 -3
1229 410 2 0.7 8.843304425822113 11.535586544144653 2.432323050195954 3 -3 2
4609 1537 1 -0.35 12.349053125387005 11.719215064387665 1.690346875060423 0 3 2
4295 1432 2 0.7 6.834364228915512 11.109995653552549 5.516628056995004 5 -1 5
4296 1432 1 -0.35 6.306747525495663 12.145222909717987 5.706122124739703 5 -1 5
3393 1131 1 -0.35 3.6473799048665274 18.34844661530842 5.358635752404275 -2 0 2
73 25 1 -0.35 11.030026316914375 14.549616660795557 2.713617958078579 -1 -1 0
4294 1432 1 -0.35 7.2708733650212425 10.044774665233799 5.4155747944524055 5 -1 5
4139 1380 2 0.7 11.438455606792823 17.596580870329795 5.434110949826433 0 2 -2
74 25 2 0.7 10.094224176850249 15.262809460722464 2.692403346223801 -1 -1 0
3087 1029 1 -0.35 6.320061280127678 16.874208567700663 4.331458773337078 6 -2 2
4472 1491 2 0.7 4.18210565506952 14.197247801616973 7.6580281107883295 -1 -1 -1
4209 1403 1 -0.35 3.310609849386354 13.498228891862016 2.740407494327783 -1 3 1
4207 1403 1 -0.35 2.5768138413290695 15.676234903392283 3.0955801879349805 -1 3 1
4208 1403 2 0.7 2.919897493617884 14.550379526489499 2.949346154587336 -1 3 1
4708 1570 1 -0.35 1.7273236319822138 10.604763245038164 2.9241894350303674 -2 1 1
4709 1570 2 0.7 1.8196258343105458 11.132901827600143 3.9569685193603954 -2 1 1
1760 587 2 0.7 7.518699212333393 16.04292628964133 6.59617917859474 -1 -1 0
1759 587 1 -0.35 7.778436494136751 15.122447727332796 5.932620205279803 -1 -1 0
4710 1570 1 -0.35 1.9062422949937596 11.664336791029388 4.981953088417703 -2 1 1
1230 410 1 -0.35 8.509851605594292 12.344105446572305 3.210473935478649 3 -3 2
4622 1541 2 0.7 12.866212979197886 11.449147027126548 8.896546066819099 -2 1 1
460 154 1 -0.35 11.367297256804607 11.48158809688611 6.461651567600904 -4 4 1
461 154 2 0.7 10.777484717530067 12.397980414266817 6.071201109199402 -4 4 1
4623 1541 1 -0.35 12.070117916255242 12.106631679074264 9.359800998016688 -2 1 1
4471 1491 1 -0.35 3.4580995872450746 14.33039600807548 6.761531356793713 -1 -1 -1
4138 1380 1 -0.35 11.85828282842799 16.5754850256142 5.800347034828771 0 2 -2
462 154 1 -0.35 10.223750054040346 13.33718543156423 5.712327316150349 -4 4 1
3086 1029 2 0.7 6.734765096804478 17.65944488223473 3.599248378390145 6 -2 2
1761 587 1 -0.35 7.251443237691769 16.91002701150764 7.292910848491332 -1 -1 0
75 25 1 -0.35 9.086573527452908 15.847066867063678 2.7325864104944033 -1 -1 0
4140 1380 1 -0.35 11.054721382193987 18.689523533608476 5.33510293241055 0 2 -2
3085 1029 1 -0.35 6.994886957984279 18.53824385854338 2.876810827755472 6 -2 2
453 151 1 -0.35 1.2060358639346944 17.74194885780215 6.755388109698145 5 -1 -1
4610 1537 2 0.7 13.29803255188316 12.221046844766622 2.14368624677007 0 3 2
4785 1595 1 -0.35 9.694658432831957 14.943105903939552 8.238663011830003 1 2 0
3710 1237 2 0.7 14.129787641013792 17.776730032680398 2.640973810855052 -2 -2 -4
4473 1491 1 -0.35 4.882985000966889 14.025399487113662 8.56794307256694 -1 -1 -1
3709 1237 1 -0.35 13.180623725075167 17.802750308512785 3.304459394612031 -2 -2 -4
4783 1595 1 -0.35 11.609457801600216 14.92182999295765 9.555269609743075 1 2 0
4784 1595 2 0.7 10.64811439590038 14.908483950259171 8.909007698997927 1 2 0
1228 410 1 -0.35 9.148013738748196 10.597088053804903 1.855552683060417 3 -3 2
945 315 1 -0.35 5.235249785414233 10.745366428973583 0.7183354840397171 1 -1 -2
452 151 2 0.7 0.4891756585173779 17.14424962185625 6.090221687451979 5 -1 -1
4621 1541 1 -0.35 13.757650009265136 10.76956918364871 8.47174310515617 -2 1 1
4338 1446 1 -0.35 13.998529821630372 16.924936530682825 7.882698832331642 0 3 1
4337 1446 2 0.7 14.133989258387663 16.01202835848276 8.602770019543076 0 3 1
944 315 2 0.7 4.221796052412545 10.269569712058209 0.45561552730329424 1 -1 -2
4186 1396 1 -0.35 7.7334077639368175 1.3556112340229047 9.736518452421556 1 0 1
4033 1345 1 -0.35 9.123472793173741 4.079995951362486 9.70574470434063 1 -1 3
2508 836 1 -0.35 0.576310022768709 9.568645978528586 16.809004429162933 2 2 -1
1779 593 1 -0.35 13.953412414875112 3.396179906949464 10.15484663710246 3 0 -4
5925 1975 1 -0.35 0.5467953822125793 6.174311120094178 13.269039934705681 -3 2 -2
5684 1895 2 0.7 13.146362619820433 9.194608727350145 15.531425645390161 -1 0 2
2322 774 1 -0.35 2.5206918380374477 2.7458662270357226 12.303767120640348 -2 3 -6
4707 1569 1 -0.35 13.362911461340266 4.173060865329518 15.618597342776079 -1 -1 -3
4546 1516 1 -0.35 9.429563987248496 3.932142167810785 18.316852715744442 0 0 -8
97 33 1 -0.35 3.146813769402866 6.128855923098406 16.49740692437427 1 -1 -2
214 72 1 -0.35 9.319255616835088 2.5517354512417096 12.01199702639325 -2 6 -2
4034 1345 2 0.7 8.75574304020702 4.973631711391502 10.323169311428806 1 -1 3
4035 1345 1 -0.35 8.369612865704484 5.939262126070988 10.804221989635558 1 -1 3
215 72 2 0.7 10.240779451786725 2.8604153338701246 12.710204578934043 -2 6 -2
3688 1230 1 -0.35 7.198371198831679 5.217266721080909 16.273574917057875 -2 2 3
2321 774 2 0.7 2.9054709732120556 2.1713180262515444 13.247049691676128 -2 3 -6
3690 1230 1 -0.35 8.212423578219973 4.5146339670411075 14.301228102783563 -2 2 3
99 33 1 -0.35 3.0458417814225016 6.926361153422227 14.355223228187526 1 -1 -2
3741 1247 1 -0.35 9.552233713235857 6.931021132814791 18.129006013580405 6 2 1
5683 1895 1 -0.35 13.98185872853499 8.428622240317397 15.707385629678567 -1 0 2
1910 637 2 0.7 10.100479185914729 0.817430827721653 15.191055054411672 -2 -1 -7
1742 581 2 0.7 11.721024233408915 7.473799363440966 11.749467913372913 0 3 2
1909 637 1 -0.35 9.082971332425585 1.3281520503515165 15.328969027328734 -2 -1 -7
1743 581 1 -0.35 11.86571368145617 6.362551474932758 11.544272964650903 0 3 2
1741 581 1 -0.35 11.541363718974203 8.555658249107925 12.09199740414334 0 3 2
4626 1542 1 -0.35 6.4915666603553515 2.1968932339860103 12.680662456572765 1 2 -2
3689 1230 2 0.7 7.699531733945496 4.873502435656394 15.290798244585705 -2 2 3
216 72 1 -0.35 11.137929067251772 3.1331988180670733 13.396111803325036 -2 6 -2
3739 1247 1 -0.35 8.14088304176813 8.318342668838294 16.839074678747767 6 2 1
4625 1542 2 0.7 6.112540726242863 1.140096991223868 12.38071202571752 1 2 -2
98 33 2 0.7 3.0151021809758456 6.460151096139416 15.41921599107059 1 -1 -2
3740 1247 2 0.7 8.8219447064961 7.630766263410617 17.505691988047754 6 2 1
3345 1115 1 -0.35 4.796078506027028 6.231901292759912 11.556626581399565 1 0 0
3343 1115 1 -0.35 6.001589397474844 7.165046310470247 13.31861858787136 1 0 0
3344 1115 2 0.7 5.351404322810774 6.726034194931401 12.462040749622886 1 0 0
4298 1433 2 0.7 5.415272025319904 8.749837000905442 18.117476106240197 2 1 3
4297 1433 1 -0.35 4.676312642916495 9.15625446638994 17.347249678803077 2 1 3
4706 1569 2 0.7 13.84684105441545 3.539720207334105 14.766561986866481 -1 -1 -3
2320 774 1 -0.35 3.33711147799578 1.7020909591973303 14.198156150213325 -2 3 -6
3402 1134 1 -0.35 1.7577279074415415 8.892965511202826 11.078679484726402 -2 -2 -2
4045 1349 1 -0.35 11.001404108691725 18.275236795463115 10.074810238316894 0 -3 -5
3174 1058 1 -0.35 9.234353062243226 12.494546473625295 17.780397615687317 0 0 -2
1880 627 2 0.7 5.85798936800381 10.795580131702952 11.625956940759934 1 2 1
1881 627 1 -0.35 4.985438236057446 11.43894927074088 11.184805000021194 1 2 1
850 284 1 -0.35 6.98435029547799 14.428368088758122 12.444482123692195 0 -2 -1
915 305 1 -0.35 0.9913436781037475 13.586726036579437 14.903737370931978 2 -1 0
1317 439 1 -0.35 10.070165885439591 18.259286839403646 13.649446402527092 1 1 -1
5027 1676 2 0.7 3.709771507128715 18.535725272761262 14.594344625840733 1 1 -2
3401 1134 2 0.7 2.0131464696847066 9.738661802087032 11.845733517685872 -2 -2 -2
3400 1134 1 -0.35 2.2540445369008757 10.637114800844776 12.569362806170341 -2 -2 -2
5685 1895 1 -0.35 12.310688129239262 10.004772070229908 15.510707618051008 -1 0 2
4046 1349 2 0.7 11.93161605806791 17.662266964410414 10.481022808245786 0 -3 -5
2542 848 1 -0.35 1.8089550471769755 16.098676315646788 13.704969105737097 3 2 -2
3173 1058 2 0.7 8.286741971447887 12.678940763251777 17.073276299650882 0 0 -2
1320 440 1 -0.35 11.897515633211782 14.503211030928412 15.078854093010005 4 0 -6
3987 1329 1 -0.35 13.54849619366952 16.036809616109434 18.035425587836453 1 0 1
2543 848 2 0.7 2.4912268818250154 15.364683407896614 13.108746324332493 3 2 -2
5430 1810 1 -0.35 7.157084898223369 16.83148638889193 13.583814277045892 3 2 -1
1879 627 1 -0.35 6.804924258380214 10.228707292652553 11.947583659703255 1 2 1
4645 1549 1 -0.35 3.9346771702742336 17.84450699169496 11.774060815709543 0 4 -1
4060 1354 1 -0.35 9.578048313878831 12.218459330895476 14.765824528095864 -1 -3 2
5028 1676 1 -0.35 4.4080500669039235 17.617976951260808 14.642817450460289 1 1 -2
5429 1810 2 0.7 6.965196549115795 17.95125945486515 13.638812646832466 3 2 -1
4047 1349 1 -0.35 12.740563956923413 17.05604783877879 11.013216261179188 0 -3 -5
1318 440 1 -0.35 12.484068814146788 12.899353792648604 16.668004129587363 4 0 -6
3172 1058 1 -0.35 7.360953786820759 12.93388858991119 16.439705045281023 0 0 -2
4061 1354 2 0.7 9.155824536716574 12.107440201525641 13.701252867751684 -1 -3 2
4062 1354 1 -0.35 8.706995297376949 12.06358795582819 12.603809500067737 -1 -3 2
3746 1249 2 0.7 4.729450023253036 12.550623250541616 14.987094253634474 2 3 3
3986 1329 2 0.7 12.527986049334862 16.546189130658313 18.35849873541195 1 0 1
852 284 1 -0.35 8.783744899675094 14.990031033564776 11.089003311310737 0 -2 -1
3985 1329 1 -0.35 11.61199408315792 17.16148423404351 18.6339717488284 1 0 1
3745 1249 1 -0.35 4.160174698183459 13.287010856046198 15.684517451233582 2 3 3
5363 1788 2 0.7 1.7279109045350853 13.588254271301437 18.501424562571223 -2 0 -2
5362 1788 1 -0.35 1.064734322457755 14.463621818267555 18.079393458180874 -2 0 -2
1453 485 1 -0.35 8.827180790631957 17.842322685129957 16.613070764264503 4 -2 2
3747 1249 1 -0.35 5.13022602358195 11.686682352428784 14.275884155763821 2 3 3
1454 485 2 0.7 9.015090459771862 16.67598526630455 16.623743850290357 4 -2 2
4647 1549 1 -0.35 3.2741701997863815 16.791725285739204 9.81542931513206 0 4 -1
2544 848 1 -0.35 3.194072128504865 14.63400372174477 12.587222189756043 3 2 -2
4646 1549 2 0.7 3.6738049152511953 17.32748872456934 10.769667471417888 0 4 -1
1455 485 1 -0.35 9.18036260620142 15.516354503807877 16.692310497449384 4 -2 2
1319 440 2 0.7 12.180233061052347 13.683462191107669 15.862121400386297 4 0 -6
851 284 2 0.7 7.914042591541958 14.712908112896232 11.798656557547405 0 -2 -1
2121 707 1 -0.35 1.0195860930800185 5.880570140325746 20.394824193186476 4 0 2
4548 1516 1 -0.35 9.788044419887317 3.9068632318313767 20.6110860189499 0 0 -8
5784 1928 1 -0.35 7.703131608666606 8.635233190862573 22.209155356978517 2 2 -1
5783 1928 2 0.7 6.820419992401449 8.009233748043833 21.818022494210926 2 2 -1
4547 1516 2 0.7 9.594200334974609 3.8890263708013246 19.45361717110581 0 0 -8
3007 1003 1 -0.35 10.904472406269685 5.18867464027038 23.77551881090798 0 -3 0
3008 1003 2 0.7 9.772107412289028 5.319033552816891 23.55792124783603 0 -3 0
113 38 2 0.7 7.9892602167021245 0.838952109200235 25.23451401930885 1 2 2
4119 1373 1 -0.35 6.111144494619582 4.537970104685233 24.72236894884071 -1 2 -4
5782 1928 1 -0.35 5.87880934564666 7.398436142712243 21.516317997350907 2 2 -1
3901 1301 1 -0.35 1.7619483557027067 5.881028482502605 24.091693385562582 3 1 1
4117 1373 1 -0.35 6.145319517454947 4.465012897253426 22.412643432397058 -1 2 -4
4118 1373 2 0.7 6.104152639590372 4.4566884377905644 23.57801975971501 -1 2 -4
3009 1003 1 -0.35 8.665534010306946 5.4093191131189196 23.326260323423462 0 -3 0
3903 1301 1 -0.35 3.278412289111459 7.5631043323436105 23.51246152097915 3 1 1
3902 1301 2 0.7 2.542639020653578 6.702446770650091 23.851662552243567 3 1 1
742 248 1 -0.35 8.132765048784133 1.1789809216746954 19.8134930897969 3 -1 1
5931 1977 1 -0.35 3.8245047648425223 3.7947271715822968 20.508082093616174 -1 2 -2
114 38 1 -0.35 8.47246101100799 1.3549678295242087 24.303885920548307 1 2 2
3351 1117 1 -0.35 11.16702059420074 0.6127460349617955 19.873831311618865 -1 -1 -3
3350 1117 2 0.7 12.078380966662621 0.5338391157225496 20.59004001944177 -1 -1 -3
4456 1486 1 -0.35 0.6074339719809424 1.225023932371569 25.82172842671691 2 -2 -2
5728 1910 1 -0.35 12.043431726356003 3.9782397586039324 27.27443031795197 0 -2 2
5930 1977 2 0.7 4.746899352155909 4.395063809833896 20.05595787633168 -1 2 -2
586 196 1 -0.35 11.175759360272615 8.18228717148245 24.140711825218187 2 0 -2
2270 757 2 0.7 0.7647753264503501 2.016305114793063 21.2160403576852 3 -1 4
2269 757 1 -0.35 1.437272089999418 1.418522783734005 21.960559812967205 3 -1 4
5380 1794 1 -0.35 2.5891358589004456 3.413761725577022 26.851833899376125 0 1 2
643 215 1 -0.35 12.514299577594691 9.24620867256377 26.970843404723826 1 1 -1
5381 1794 2 0.7 3.229928545609669 2.677748104660638 26.22007960094531 0 1 2
5382 1794 1 -0.35 3.9819106051684834 1.9673653689666062 25.62409327841215 0 1 2
5730 1910 1 -0.35 13.900036505311741 3.73565205311964 25.89114225653281 0 -2 2
5729 1910 2 0.7 12.994882385519206 3.8625046191165398 26.634757914648333 0 -2 2
5211 1737 1 -0.35 12.179296961905957 1.3702308007996962 25.676590576934593 1 2 -1
587 196 2 0.7 10.811635791411275 8.667600293856903 23.107450072508247 2 0 -2
588 196 1 -0.35 10.53657144715506 9.137548549427823 22.0813969216106 2 0 -2
5210 1737 2 0.7 12.710708754549485 0.6927605896151867 24.9479958603418 1 2 -1
5259 1753 1 -0.35 6.809035921476787 3.149861702572747 26.976568232568248 5 2 -3
5258 1753 2 0.7 7.461039544170228 3.624464650878508 27.81462983070665 5 2 -3
644 215 2 0.7 12.519046527745381 8.436098265468194 27.77288607639856 1 1 -1
5929 1977 1 -0.35 5.5929280402147175 4.883474170119475 19.425255851514017 -1 2 -2
743 248 2 0.7 8.603273724717663 0.8382950640604359 20.80507641298739 3 -1 1
4299 1433 1 -0.35 6.268135095401082 8.39450489531757 18.847192637719555 2 1 3
3865 1289 1 -0.35 11.87623749507888 11.36820337400595 20.155354295565928 5 1 -4
5364 1788 1 -0.35 2.2739014320449447 12.662390821420837 18.932707716950457 -2 0 -2
5099 1700 2 0.7 13.316495676273998 12.878455335757478 27.331460884078748 3 5 0
5100 1700 1 -0.35 14.055465409250722 13.598482432334768 26.781291651624237 3 5 0
1413 471 1 -0.35 1.177470962418334 11.16706485512216 25.028732147963833 3 -4 0
961 321 1 -0.35 8.246848960657298 18.328246964656387 24.60215714236975 2 1 0
188 63 2 0.7 3.1259141687312257 16.139400492764825 22.950611203357155 0 -1 4
4103 1368 2 0.7 2.7919129150586732 12.365982800088053 27.490897452723196 0 0 -3
2040 680 1 -0.35 8.170297213599955 12.534647652839727 22.80082763425394 1 -1 -1
2039 680 2 0.7 7.592763390209556 12.459985757246777 21.754072919015577 1 -1 -1
2038 680 1 -0.35 7.029434875303126 12.0795974346578 20.806173909209758 1 -1 -1
3359 1120 2 0.7 11.395065685638011 15.677766121250338 26.619114793181893 2 0 -1
5219 1740 2 0.7 5.557495290537649 14.867028134838366 20.280004005214003 -3 0 2
3360 1120 1 -0.35 12.200187640469432 16.207327427465138 25.914715869091626 2 0 -1
5218 1740 1 -0.35 4.496212413186518 14.951058945960895 20.730322262733917 -3 0 2
5220 1740 1 -0.35 6.5644061175117026 14.802019251459065 19.75081571700682 -3 0 2
3866 1289 2 0.7 10.931215718899978 11.999930871106017 20.409313567473014 5 1 -4
232 78 1 -0.35 8.867858920777769 15.672466345024425 22.744586822256228 -1 1 -2
233 78 2 0.7 9.810062699250793 16.27006483694346 22.376416567348336 -1 1 -2
3663 1221 1 -0.35 13.407227913424878 12.006956252127532 23.190791540436408 1 0 0
234 78 1 -0.35 10.758469598647698 16.824466298543857 21.99125285723056 -1 1 -2
187 63 1 -0.35 3.892816048390252 17.0043935497364 22.79034187238802 0 -1 4
3661 1221 1 -0.35 11.453489557008693 13.230959071121495 23.40358954355013 1 0 0
3662 1221 2 0.7 12.412310455630644 12.623647541912913 23.30809865512656 1 0 0
189 63 1 -0.35 2.4123008485518502 15.231346531537953 23.042342487847094 0 -1 4
3552 1184 1 -0.35 6.453572010801 16.29452809967541 27.194612001201858 0 -5 -2
3867 1289 1 -0.35 9.99503235430758 12.626385601734716 20.630196566171104 5 1 -4
4102 1368 1 -0.35 3.011460542289562 11.347900906630684 27.95625419679026 0 0 -3
1412 471 2 0.7 0.7818169381570379 10.437928450976399 25.81182712796238 3 -4 0
4104 1368 1 -0.35 2.412801207575997 13.303462984939394 26.960965686993582 0 0 -3
3358 1120 1 -0.35 10.527180878818726 15.205102275065453 27.283499175249894 2 0 -1
1473 491 1 -0.35 11.148706792546228 18.49738623450573 27.83105925430109 2 -1 1
1564 522 1 -0.35 2.437954816853171 18.644634300809983 19.06259278546174 -3 0 4
5806 1936 1 -0.35 1.16149773465568 18.17612939132536 22.313559001905343 1 3 -6
5098 1700 1 -0.35 12.42167510136622 12.318121608899116 27.79503816330644 3 5 0
1998 666 1 -0.35 2.0396508402063906 18.02763197788631 25.29305707905363 3 0 -1
1997 666 2 0.7 2.6157955749910164 18.39707657622187 26.243159498947275 3 0 -1
172 58 1 -0.35 1.9008892993801128 4.067338215607526 33.52920106980319 2 -1 1
2533 845 1 -0.35 2.207754669209385 0.7504441898585192 35.14061770145754 2 -1 -2
78 26 1 -0.35 10.074369540974681 1.407595904117379 29.069597477370348 1 0 2
76 26 1 -0.35 11.460704504894249 0.9707109984217976 30.879778890698542 1 0 2
3347 1116 2 0.7 13.584972645477558 1.715593214768408 36.04503020509186 1 -1 2
3348 1116 1 -0.35 12.4816911271423 1.7849812354521446 35.619095872679964 1 -1 2
173 58 2 0.7 1.7726661282831577 4.434034520858767 34.60956218147797 2 -1 1
3546 1182 1 -0.35 1.4969937627534609 7.084839696450206 27.973813344719975 6 2 0
5257 1753 1 -0.35 8.030463767544367 4.094489016469238 28.735091649845636 5 2 -3
645 215 1 -0.35 12.653427387106964 7.5901055440274385 28.52487540112328 1 1 -1
77 26 2 0.7 10.804748746075854 1.1489035841987034 29.921555132743748 1 0 2
4087 1363 1 -0.35 6.798881491189845 6.379116786031425 30.302098679644065 -1 0 -5
463 155 1 -0.35 11.729216802445073 7.44505429651161 33.6479641209029 -1 1 0
1041 347 1 -0.35 3.3287266745003237 7.818951252745169 32.90811337344117 2 2 0
1039 347 1 -0.35 1.1266881564709066 7.574924280941257 33.5218616131838 2 2 0
1040 347 2 0.7 2.2035717903450296 7.767010694382375 33.188761143753155 2 2 0
2209 737 1 -0.35 9.775674848140962 0.9127310808141751 36.41242122437832 -2 -2 -5
2752 918 1 -0.35 7.5303450466597734 9.017629918318033 36.24301433323171 0 5 -2
4089 1363 1 -0.35 5.392265889146888 6.893509159245209 28.54115748305886 -1 0 -5
4088 1363 2 0.7 6.046940994816175 6.596247579319968 29.46604529590571 -1 0 -5
2210 737 2 0.7 9.306247111510569 1.6913019330801333 35.693922875152225 -2 -2 -5
2753 918 2 0.7 6.652830731610227 8.632978084177509 35.53872440941093 0 5 -2
2754 918 1 -0.35 5.818144939437324 8.250611049588299 34.85184227579347 0 5 -2
2192 731 2 0.7 4.522976182766234 0.7470273020565379 30.931362351721265 -1 -2 -3
2191 731 1 -0.35 4.818975053939759 1.73905151922945 30.329548453710657 -1 -2 -3
2211 737 1 -0.35 8.959806456908847 2.50394879373488 34.97248533774835 -2 -2 -5
464 155 2 0.7 12.226978758810938 6.732462062013431 34.41207728626793 -1 1 0
465 155 1 -0.35 12.761915842820617 6.006947675442191 35.138248772533174 -1 1 0
3544 1182 1 -0.35 1.5882944326369173 7.727875996556647 30.176091663129498 6 2 0
3545 1182 2 0.7 1.5329442921304 7.374232999938592 29.07590302155293 6 2 0
174 58 1 -0.35 1.645190667700298 4.8851894952115815 35.70974647427178 2 -1 1
1425 475 1 -0.35 13.219303237427058 9.117054632750552 36.97742601117777 0 3 1
4482 1494 1 -0.35 4.83795289429319 10.94480193678605 33.434023787710615 -2 -1 -1
1351 451 1 -0.35 9.641064729170068 16.862085689520974 31.85986031900118 -2 -1 3
3551 1184 2 0.7 7.143362174399008 16.052926771666925 28.116142430255415 0 -5 -2
1641 547 1 -0.35 2.043023507846983 11.126332311929986 32.01182326736049 -1 -1 -3
4132 1378 1 -0.35 9.138402800321296 12.542732619921928 37.08682657676961 0 3 -1
1472 491 2 0.7 11.409282760969022 18.666360490723914 28.967675275367206 2 -1 1
4219 1407 1 -0.35 12.105715229221 14.043124386364731 34.88887664550967 2 -3 0
1452 484 1 -0.35 10.246918543501469 10.331530992061614 32.18915957858981 1 -3 3
2126 709 2 0.7 3.5416906536540003 14.937775672985984 29.59186034803372 2 0 1
1353 451 1 -0.35 9.910765369038701 18.0451669989668 33.83596943960458 -2 -1 3
297 99 1 -0.35 8.686576903073883 15.534759096435772 36.400540066409434 -1 1 4
1214 405 2 0.7 0.6448981597121493 9.883383708476552 36.37720962305875 -1 0 -3
4134 1378 1 -0.35 8.658342291273954 12.909285126068607 34.81811663199919 0 3 -1
2125 709 1 -0.35 2.9256566725802453 14.07363414261985 30.03696903508742 2 0 1
4220 1407 2 0.7 12.880841385508502 13.323269333069003 35.37264816253118 2 -3 0
1352 451 2 0.7 9.840442220784684 17.506500472816015 32.78472236371208 -2 -1 3
4480 1494 1 -0.35 6.148340441812328 11.482590326249099 35.30889291654394 -2 -1 -1
4221 1407 1 -0.35 13.687748109655042 12.734008880927984 35.902440135960674 2 -3 0
1270 424 1 -0.35 10.669215404115949 12.865307108734024 30.244427821293723 3 1 0
4133 1378 2 0.7 8.8596182331658 12.747157892318338 35.99764894699061 0 3 -1
295 99 1 -0.35 7.602959786305272 16.334039280543657 34.46334048304321 -1 1 4
2127 709 1 -0.35 4.269678011846906 15.77643899329784 29.286889282421743 2 0 1
1271 424 2 0.7 11.671891306127707 13.324517418226412 30.64413294576963 3 1 0
1639 547 1 -0.35 1.6707153744530563 13.230752922365049 32.986009199209704 -1 -1 -3
1450 484 1 -0.35 8.038758499533195 10.24600413139101 32.823244827192966 1 -3 3
1272 424 1 -0.35 12.68954030445987 13.771626661662776 31.02151441844305 3 1 0
1451 484 2 0.7 9.13544873042596 10.24825233439026 32.5200071372351 1 -3 3
1215 405 1 -0.35 1.286545777935852 10.154328993659544 35.47154717318435 -1 0 -3
4481 1494 2 0.7 5.4603481432675105 11.223620012343677 34.380141121561365 -2 -1 -1
3550 1184 1 -0.35 7.831105904194633 15.797020379894523 29.059506550742025 0 -5 -2
296 99 2 0.7 8.200169334807736 16.052592288450263 35.431189091200665 -1 1 4
1640 547 2 0.7 1.8482239428583125 12.1540478139566 32.52486326019347 -1 -1 -3
5332 1778 1 -0.35 5.749950191783461 18.714178535687136 30.26550180085752 -2 2 -1
697 233 1 -0.35 11.022666819581149 4.96995799894438 40.391739900514665 2 2 0
5734 1912 1 -0.35 11.53275596578807 5.573919778524828 45.73732634844799 -3 0 -1
5021 1674 2 0.7 3.895751392098074 3.907255061320304 42.96900316527265 -2 0 -3
4407 1469 1 -0.35 9.095457523514629 6.9924139324927435 42.982280444582685 0 4 3
4406 1469 2 0.7 8.956225954295098 5.8719430063397775 43.27335149380974 0 4 3
16 6 1 -0.35 10.869531838973705 0.521667542956553 42.11703593624058 1 -3 1
17 6 2 0.7 10.61896910980543 1.1697831501975977 43.02751299813838 1 -3 1
4496 1499 2 0.7 0.4683315053291489 4.802460778968163 46.01900467202641 -1 2 -2
5020 1674 1 -0.35 4.279645304965713 4.7074822091724755 42.20966249412719 -2 0 -3
4405 1469 1 -0.35 8.996824009268051 4.750067523314205 43.66449902852763 0 4 3
698 233 2 0.7 10.524086364886045 4.574745230205954 39.42685114254175 2 2 0
4497 1499 1 -0.35 1.5609759984502785 4.4362156345904555 45.81293280697437 -1 2 -2
5022 1674 1 -0.35 3.522717670444988 3.1167139762071954 43.687144871598065 -2 0 -3
4079 1360 2 0.7 8.071853099247313 8.412546014714362 40.305919403955315 2 3 0
4080 1360 1 -0.35 7.970792508210474 9.191504346581498 41.18699073334312 2 3 0
699 233 1 -0.35 10.148535445803896 4.329978737066806 38.34053539405717 2 2 0
2839 947 1 -0.35 8.852967186873196 1.4756441935721178 39.42491396570438 -4 1 0
18 6 1 -0.35 10.344212198054352 1.7923987656113305 43.930218598550795 1 -3 1
1601 534 2 0.7 5.26780751416089 6.940810445620228 45.197273919765124 4 2 -1
3731 1244 2 0.7 4.863743328865763 5.26325754441682 38.2013681813078 -4 -3 4
3730 1244 1 -0.35 5.316228301883228 6.198883017883785 37.656463510602876 -4 -3 4
1595 532 2 0.7 11.773927553727324 8.451296926205517 42.140447146037985 2 4 1
4078 1360 1 -0.35 8.239644830158737 7.61923652533435 39.51008826378748 2 3 0
2840 947 2 0.7 8.036536861593916 0.7095798242583997 39.0994317763203 -4 1 0
1424 475 2 0.7 12.498685557297753 9.478291765519417 37.843963088952066 0 3 1
1600 534 1 -0.35 4.374032141599804 7.04842211789655 45.888852118232194 4 2 -1
4281 1427 1 -0.35 6.871156750933179 2.849377085412146 45.33851819525434 1 -2 1
1596 532 1 -0.35 12.433533067616384 7.567931384471664 42.46046198254359 2 4 1
3732 1244 1 -0.35 4.418934371628174 4.302620104029478 38.70048915184418 -4 -3 4
343 115 1 -0.35 8.03095976059935 9.296485068206218 45.018922087791424 3 -3 1
1602 534 1 -0.35 6.209636235396711 6.628837567320901 44.59886385939359 4 2 -1
4280 1427 2 0.7 7.414881948895562 3.6790835006173594 45.95080656677678 1 -2 1
5064 1688 1 -0.35 14.186119102142259 9.107071924078737 44.13386164176089 -2 2 0
1594 532 1 -0.35 11.167380097250874 9.374425481373578 41.77598960629625 2 4 1
5062 1688 1 -0.35 13.739156105690677 7.800824582597046 46.023871673302665 -2 2 0
115 39 1 -0.35 3.52192253616349 0.9007215319451484 41.4975078732823 -2 1 -3
5063 1688 2 0.7 13.929599632717833 8.470486603504419 45.08543791144591 -2 2 0
2643 881 1 -0.35 2.0955215280521724 9.787576939453222 42.803103073521214 -2 6 0
3978 1326 1 -0.35 3.863828454477872 10.631184147944793 38.0760265113835 -1 1 3
1423 475 1 -0.35 11.71266510649676 9.856257385939832 38.60476421786521 0 3 1
3977 1326 2 0.7 4.802652878811936 10.91119148432832 38.6992530298985 -1 1 3
2641 881 1 -0.35 1.4220417390143818 12.060047970504973 42.74063282691375 -2 6 0
2642 881 2 0.7 1.7098174750362558 10.906135498258623 42.789182299501206 -2 6 0
2874 958 1 -0.35 12.99367087776691 14.405541555471867 44.45196315232495 -3 0 -1
3976 1326 1 -0.35 5.708053641594066 11.148550951980496 39.38669860985446 -1 1 3
15 5 1 -0.35 13.618450420300624 16.371752837260406 38.83865667408571 3 -3 1
1726 576 1 -0.35 6.213777675890483 11.129713117696024 43.04033823960867 1 3 0
4485 1495 1 -0.35 4.032756131607391 15.136239058641678 43.62596473542747 2 -2 5
1728 576 1 -0.35 5.182394120272769 12.873386347617945 41.854166511641424 1 3 0
1727 576 2 0.7 5.681205964306735 11.983852545601668 42.45220477443796 1 3 0
4483 1495 1 -0.35 2.580785024115023 16.87536426474441 44.1936007198135 2 -2 5
4146 1382 1 -0.35 7.86060472529202 14.048434637423485 39.70549551489667 -3 2 6
1712 571 2 0.7 1.9827940805728206 13.940982134653979 40.37364532616397 0 4 -3
1711 571 1 -0.35 2.1000183593172386 14.771934499994442 41.1509726000147 0 4 -3