created by fftool

6000 atoms
4000 bonds
2000 angles
2 atom types
1 bond types
1 angle types
0.000000 55.912882 xlo xhi
0.000000 55.912882 ylo yhi
0.000000 55.912882 zlo zhi

Atoms

      1       1    1  -0.325600  3.730859e+01  5.222254e+00  4.903730e+01  # O CO2
      2       1    2   0.651200  3.658032e+01  6.115144e+00  4.890323e+01  # C CO2
      3       1    1  -0.325600  3.585205e+01  7.008033e+00  4.876917e+01  # O CO2
      4       2    1  -0.325600  1.765366e+01  1.138346e+01  4.013119e+01  # O CO2
      5       2    2   0.651200  1.676232e+01  1.148597e+01  3.939594e+01  # C CO2
      6       2    1  -0.325600  1.587098e+01  1.158847e+01  3.866068e+01  # O CO2
      7       3    1  -0.325600  1.808829e+01  7.743822e+00  5.250546e+01  # O CO2
      8       3    2   0.651200  1.805803e+01  8.403062e+00  5.345945e+01  # C CO2
      9       3    1  -0.325600  1.802776e+01  9.062302e+00  5.441343e+01  # O CO2
     10       4    1  -0.325600  6.778257e+00  5.441259e+01  3.173125e+01  # O CO2
     11       4    2   0.651200  7.877467e+00  5.441256e+01  3.210184e+01  # C CO2
     12       4    1  -0.325600  8.976677e+00  5.441253e+01  3.247243e+01  # O CO2
     13       5    1  -0.325600  4.595243e+00  1.161553e+01  8.104172e+00  # O CO2
     14       5    2   0.651200  3.721434e+00  1.130746e+01  7.406210e+00  # C CO2
     15       5    1  -0.325600  2.847625e+00  1.099939e+01  6.708248e+00  # O CO2
     16       6    1  -0.325600  5.316656e+01  1.426633e+01  5.163236e+01  # O CO2
     17       6    2   0.651200  5.292802e+01  1.440833e+01  5.275865e+01  # C CO2
     18       6    1  -0.325600  5.268949e+01  1.455032e+01  5.388495e+01  # O CO2
     19       7    1  -0.325600  6.734694e+00  2.189725e+01  8.335243e+00  # O CO2
     20       7    2   0.651200  6.413304e+00  2.084735e+01  8.709437e+00  # C CO2
     21       7    1  -0.325600  6.091913e+00  1.979745e+01  9.083632e+00  # O CO2
     22       8    1  -0.325600  3.269828e+00  5.317328e+01  1.442508e+01  # O CO2
     23       8    2   0.651200  4.408243e+00  5.296213e+01  1.449600e+01  # C CO2
     24       8    1  -0.325600  5.546657e+00  5.275098e+01  1.456692e+01  # O CO2
     25       9    1  -0.325600  2.414579e+01  8.190596e+00  4.906688e+01  # O CO2
     26       9    2   0.651200  2.489775e+01  7.395004e+00  4.945053e+01  # C CO2
     27       9    1  -0.325600  2.564972e+01  6.599412e+00  4.983418e+01  # O CO2
     28      10    1  -0.325600  4.910511e+01  2.222974e+01  4.704681e+01  # O CO2
     29      10    2   0.651200  5.010009e+01  2.248788e+01  4.650925e+01  # C CO2
     30      10    1  -0.325600  5.109508e+01  2.274603e+01  4.597170e+01  # O CO2
     31      11    1  -0.325600  3.645801e+01  4.368903e+01  2.701322e+01  # O CO2
     32      11    2   0.651200  3.595915e+01  4.265015e+01  2.714537e+01  # C CO2
     33      11    1  -0.325600  3.546029e+01  4.161127e+01  2.727753e+01  # O CO2
     34      12    1  -0.325600  5.151635e+01  2.218988e+01  4.239010e+00  # O CO2
     35      12    2   0.651200  5.257252e+01  2.179216e+01  3.970858e+00  # C CO2
     36      12    1  -0.325600  5.362870e+01  2.139443e+01  3.702707e+00  # O CO2
     37      13    1  -0.325600  1.417757e+01  2.334086e+01  5.233474e+01  # O CO2
     38      13    2   0.651200  1.499508e+01  2.251905e+01  5.237837e+01  # C CO2
     39      13    1  -0.325600  1.581259e+01  2.169724e+01  5.242200e+01  # O CO2
     40      14    1  -0.325600  2.059803e+01  5.257948e+01  3.783319e+01  # O CO2
     41      14    2   0.651200  2.070584e+01  5.142458e+01  3.781935e+01  # C CO2
     42      14    1  -0.325600  2.081366e+01  5.026969e+01  3.780551e+01  # O CO2
     43      15    1  -0.325600  7.503501e+00  4.544816e+01  4.098680e+01  # O CO2
     44      15    2   0.651200  8.644801e+00  4.565388e+01  4.096011e+01  # C CO2
     45      15    1  -0.325600  9.786101e+00  4.585960e+01  4.093343e+01  # O CO2
     46      16    1  -0.325600  4.322791e+01  4.285053e+01  2.704086e+01  # O CO2
     47      16    2   0.651200  4.322046e+01  4.174914e+01  2.740483e+01  # C CO2
     48      16    1  -0.325600  4.321301e+01  4.064774e+01  2.776881e+01  # O CO2
     49      17    1  -0.325600  5.062842e+01  1.422431e+01  3.516816e+01  # O CO2
     50      17    2   0.651200  5.047398e+01  1.394122e+01  3.405389e+01  # C CO2
     51      17    1  -0.325600  5.031953e+01  1.365813e+01  3.293961e+01  # O CO2
     52      18    1  -0.325600  2.171716e+01  4.960433e+00  1.209113e+01  # O CO2
     53      18    2   0.651200  2.115680e+01  5.045228e+00  1.107899e+01  # C CO2
     54      18    1  -0.325600  2.059645e+01  5.130023e+00  1.006686e+01  # O CO2
     55      19    1  -0.325600  4.581145e+01  3.789105e+01  2.240507e+01  # O CO2
     56      19    2   0.651200  4.475715e+01  3.835761e+01  2.253300e+01  # C CO2
     57      19    1  -0.325600  4.370285e+01  3.882418e+01  2.266093e+01  # O CO2
     58      20    1  -0.325600  3.672682e+01  2.709243e+00  2.074829e+01  # O CO2
     59      20    2   0.651200  3.781825e+01  2.323842e+00  2.082467e+01  # C CO2
     60      20    1  -0.325600  3.890969e+01  1.938442e+00  2.090105e+01  # O CO2
     61      21    1  -0.325600  3.362816e+01  3.533427e+01  1.896697e+01  # O CO2
     62      21    2   0.651200  3.252659e+01  3.501195e+01  1.913510e+01  # C CO2
     63      21    1  -0.325600  3.142503e+01  3.468962e+01  1.930323e+01  # O CO2
     64      22    1  -0.325600  3.263795e+01  4.784993e+01  3.053165e+01  # O CO2
     65      22    2   0.651200  3.161810e+01  4.758675e+01  3.004560e+01  # C CO2
     66      22    1  -0.325600  3.059825e+01  4.732358e+01  2.955955e+01  # O CO2
     67      23    1  -0.325600  4.041250e+01  3.753172e+01  3.812812e+01  # O CO2
     68      23    2   0.651200  4.083821e+01  3.838744e+01  3.747076e+01  # C CO2
     69      23    1  -0.325600  4.126391e+01  3.924316e+01  3.681341e+01  # O CO2
     70      24    1  -0.325600  4.696945e+01  3.857240e+01  3.139560e+01  # O CO2
     71      24    2   0.651200  4.635611e+01  3.758873e+01  3.143809e+01  # C CO2
     72      24    1  -0.325600  4.574277e+01  3.660506e+01  3.148059e+01  # O CO2
     73      25    1  -0.325600  2.105889e+01  5.388783e+01  4.036176e+01  # O CO2
     74      25    2   0.651200  2.076238e+01  5.303444e+01  4.108935e+01  # C CO2
     75      25    1  -0.325600  2.046586e+01  5.218104e+01  4.181695e+01  # O CO2
     76      26    1  -0.325600  3.844854e+01  4.882550e+01  2.067130e+01  # O CO2
     77      26    2   0.651200  3.801002e+01  4.799354e+01  2.135037e+01  # C CO2
     78      26    1  -0.325600  3.757150e+01  4.716157e+01  2.202945e+01  # O CO2
     79      27    1  -0.325600  3.364668e+01  2.141504e+01  1.380379e+01  # O CO2
     80      27    2   0.651200  3.411614e+01  2.123135e+01  1.275906e+01  # C CO2
     81      27    1  -0.325600  3.458561e+01  2.104765e+01  1.171433e+01  # O CO2
     82      28    1  -0.325600  8.978226e+00  3.915729e+01  3.383839e+01  # O CO2
     83      28    2   0.651200  9.388579e+00  4.023077e+01  3.399604e+01  # C CO2
     84      28    1  -0.325600  9.798931e+00  4.130425e+01  3.415368e+01  # O CO2
     85      29    1  -0.325600  1.021762e+01  3.656950e+01  3.715757e+01  # O CO2
     86      29    2   0.651200  9.327979e+00  3.731386e+01  3.714898e+01  # C CO2
     87      29    1  -0.325600  8.438341e+00  3.805822e+01  3.714038e+01  # O CO2
     88      30    1  -0.325600  1.426195e+01  3.753966e+01  3.755638e+01  # O CO2
     89      30    2   0.651200  1.496060e+01  3.813745e+01  3.684918e+01  # C CO2
     90      30    1  -0.325600  1.565926e+01  3.873524e+01  3.614198e+01  # O CO2
     91      31    1  -0.325600  5.248616e+01  3.687601e+01  4.832629e+01  # O CO2
     92      31    2   0.651200  5.192651e+01  3.749169e+01  4.751801e+01  # C CO2
     93      31    1  -0.325600  5.136686e+01  3.810738e+01  4.670972e+01  # O CO2
     94      32    1  -0.325600  5.301886e+01  2.953983e+01  2.515368e+01  # O CO2
     95      32    2   0.651200  5.213665e+01  2.878820e+01  2.520233e+01  # C CO2
     96      32    1  -0.325600  5.125444e+01  2.803658e+01  2.525098e+01  # O CO2
     97      33    1  -0.325600  4.509828e+01  5.880402e+00  2.250139e+01  # O CO2
     98      33    2   0.651200  4.588434e+01  6.569974e+00  2.300358e+01  # C CO2
     99      33    1  -0.325600  4.667040e+01  7.259547e+00  2.350578e+01  # O CO2
    100      34    1  -0.325600  1.679218e+01  4.289673e+01  9.326327e+00  # O CO2
    101      34    2   0.651200  1.653905e+01  4.184915e+01  9.755401e+00  # C CO2
    102      34    1  -0.325600  1.628591e+01  4.080157e+01  1.018448e+01  # O CO2
    103      35    1  -0.325600  2.880116e+01  9.702444e+00  2.550010e+01  # O CO2
    104      35    2   0.651200  2.892449e+01  9.200506e+00  2.446161e+01  # C CO2
    105      35    1  -0.325600  2.904782e+01  8.698567e+00  2.342313e+01  # O CO2
    106      36    1  -0.325600  2.964154e+01  1.450473e+01  2.383739e+01  # O CO2
    107      36    2   0.651200  2.922238e+01  1.347715e+01  2.417499e+01  # C CO2
    108      36    1  -0.325600  2.880322e+01  1.244957e+01  2.451259e+01  # O CO2
    109      37    1  -0.325600  5.472822e+00  5.298729e+01  2.420339e+01  # O CO2
    110      37    2   0.651200  4.715860e+00  5.337783e+01  2.341594e+01  # C CO2
    111      37    1  -0.325600  3.958898e+00  5.376838e+01  2.262848e+01  # O CO2
    112      38    1  -0.325600  5.151540e+01  6.588433e+00  4.631023e+01  # O CO2
    113      38    2   0.651200  5.046154e+01  6.933400e+00  4.665079e+01  # C CO2
    114      38    1  -0.325600  4.940768e+01  7.278367e+00  4.699135e+01  # O CO2
    115      39    1  -0.325600  5.017803e+01  3.183748e+01  9.350615e+00  # O CO2
    116      39    2   0.651200  4.919668e+01  3.160643e+01  9.924348e+00  # C CO2
    117      39    1  -0.325600  4.821533e+01  3.137538e+01  1.049808e+01  # O CO2
    118      40    1  -0.325600  2.666594e+01  7.855343e+00  1.480686e+01  # O CO2
    119      40    2   0.651200  2.606282e+01  6.868753e+00  1.471471e+01  # C CO2
    120      40    1  -0.325600  2.545971e+01  5.882162e+00  1.462256e+01  # O CO2
    121      41    1  -0.325600  1.594834e+01  3.175147e+01  5.070664e+01  # O CO2
    122      41    2   0.651200  1.698240e+01  3.123642e+01  5.060151e+01  # C CO2
    123      41    1  -0.325600  1.801645e+01  3.072137e+01  5.049638e+01  # O CO2
    124      42    1  -0.325600  4.020807e+01  1.440587e+01  5.791741e+00  # O CO2
    125      42    2   0.651200  3.962240e+01  1.466807e+01  4.825383e+00  # C CO2
    126      42    1  -0.325600  3.903674e+01  1.493027e+01  3.859024e+00  # O CO2
    127      43    1  -0.325600  2.878890e+01  6.172946e+00  4.481368e+01  # O CO2
    128      43    2   0.651200  2.861540e+01  5.026007e+00  4.481913e+01  # C CO2
    129      43    1  -0.325600  2.844190e+01  3.879068e+00  4.482458e+01  # O CO2
    130      44    1  -0.325600  2.650015e+01  4.928483e+01  9.391968e+00  # O CO2
    131      44    2   0.651200  2.698250e+01  5.025013e+01  8.966370e+00  # C CO2
    132      44    1  -0.325600  2.746486e+01  5.121542e+01  8.540772e+00  # O CO2
    133      45    1  -0.325600  1.866485e+01  1.288582e+01  5.184127e+01  # O CO2
    134      45    2   0.651200  1.807908e+01  1.188489e+01  5.181668e+01  # C CO2
    135      45    1  -0.325600  1.749331e+01  1.088396e+01  5.179210e+01  # O CO2
    136      46    1  -0.325600  2.936486e+01  2.209243e+01  5.400075e+01  # O CO2
    137      46    2   0.651200  2.878083e+01  2.309467e+01  5.399530e+01  # C CO2
    138      46    1  -0.325600  2.819679e+01  2.409690e+01  5.398985e+01  # O CO2
    139      47    1  -0.325600  1.574834e+01  3.083408e+01  1.268390e+01  # O CO2
    140      47    2   0.651200  1.469374e+01  3.050124e+01  1.303410e+01  # C CO2
    141      47    1  -0.325600  1.363914e+01  3.016840e+01  1.338429e+01  # O CO2
    142      48    1  -0.325600  4.014258e+01  2.314032e+01  1.403416e+01  # O CO2
    143      48    2   0.651200  4.037088e+01  2.278301e+01  1.511388e+01  # C CO2
    144      48    1  -0.325600  4.059919e+01  2.242569e+01  1.619360e+01  # O CO2
    145      49    1  -0.325600  3.178000e+01  2.040167e+01  5.310399e+01  # O CO2
    146      49    2   0.651200  3.211682e+01  1.972762e+01  5.222205e+01  # C CO2
    147      49    1  -0.325600  3.245364e+01  1.905358e+01  5.134011e+01  # O CO2
    148      50    1  -0.325600  7.998825e+00  3.102095e+00  1.948372e+01  # O CO2
    149      50    2   0.651200  7.255680e+00  2.299356e+00  1.909779e+01  # C CO2
    150      50    1  -0.325600  6.512535e+00  1.496617e+00  1.871185e+01  # O CO2
    151      51    1  -0.325600  5.147613e+00  4.389893e+01  2.557749e+01  # O CO2
    152      51    2   0.651200  5.444236e+00  4.316644e+01  2.642666e+01  # C CO2
    153      51    1  -0.325600  5.740859e+00  4.243396e+01  2.727582e+01  # O CO2
    154      52    1  -0.325600  7.479463e+00  1.219274e+01  1.811635e+01  # O CO2
    155      52    2   0.651200  6.664388e+00  1.298497e+01  1.788476e+01  # C CO2
    156      52    1  -0.325600  5.849313e+00  1.377719e+01  1.765316e+01  # O CO2
    157      53    1  -0.325600  3.049924e+01  5.173973e+01  3.852155e+01  # O CO2
    158      53    2   0.651200  2.978354e+01  5.264201e+01  3.866033e+01  # C CO2
    159      53    1  -0.325600  2.906783e+01  5.354429e+01  3.879911e+01  # O CO2
    160      54    1  -0.325600  3.910157e+01  2.893461e+01  3.975295e+01  # O CO2
    161      54    2   0.651200  4.018962e+01  2.894821e+01  3.935098e+01  # C CO2
    162      54    1  -0.325600  4.127766e+01  2.896182e+01  3.894901e+01  # O CO2
    163      55    1  -0.325600  4.185227e+01  2.595505e+01  5.255907e+01  # O CO2
    164      55    2   0.651200  4.120416e+01  2.569765e+01  5.348606e+01  # C CO2
    165      55    1  -0.325600  4.055605e+01  2.544026e+01  5.441304e+01  # O CO2
    166      56    1  -0.325600  3.914472e+00  7.722350e+00  2.797499e+00  # O CO2
    167      56    2   0.651200  4.366220e+00  6.657899e+00  2.889514e+00  # C CO2
    168      56    1  -0.325600  4.817969e+00  5.593447e+00  2.981530e+00  # O CO2
    169      57    1  -0.325600  4.919377e+01  5.435934e+01  3.563244e+01  # O CO2
    170      57    2   0.651200  4.821797e+01  5.373812e+01  3.571916e+01  # C CO2
    171      57    1  -0.325600  4.724218e+01  5.311691e+01  3.580587e+01  # O CO2
    172      58    1  -0.325600  2.018385e+01  3.333984e+00  4.313429e+01  # O CO2
    173      58    2   0.651200  2.011194e+01  3.898703e+00  4.414500e+01  # C CO2
    174      58    1  -0.325600  2.004003e+01  4.463422e+00  4.515570e+01  # O CO2
    175      59    1  -0.325600  2.672634e+01  3.332430e+01  5.132221e+01  # O CO2
    176      59    2   0.651200  2.621879e+01  3.411772e+01  5.064510e+01  # C CO2
    177      59    1  -0.325600  2.571125e+01  3.491114e+01  4.996799e+01  # O CO2
    178      60    1  -0.325600  4.531615e+01  4.354785e+00  2.557056e+01  # O CO2
    179      60    2   0.651200  4.559698e+01  3.795297e+00  2.459398e+01  # C CO2
    180      60    1  -0.325600  4.587780e+01  3.235810e+00  2.361740e+01  # O CO2
    181      61    1  -0.325600  2.929761e+01  4.926950e+01  3.868783e+01  # O CO2
    182      61    2   0.651200  2.942798e+01  4.859495e+01  3.962248e+01  # C CO2
    183      61    1  -0.325600  2.955835e+01  4.792039e+01  4.055714e+01  # O CO2
    184      62    1  -0.325600  4.090918e+01  2.702340e+01  4.118363e+01  # O CO2
    185      62    2   0.651200  3.981650e+01  2.663397e+01  4.118048e+01  # C CO2
    186      62    1  -0.325600  3.872383e+01  2.624455e+01  4.117732e+01  # O CO2
    187      63    1  -0.325600  2.630549e+01  4.174645e+01  4.393740e+01  # O CO2
    188      63    2   0.651200  2.662657e+01  4.063213e+01  4.396584e+01  # C CO2
    189      63    1  -0.325600  2.694765e+01  3.951781e+01  4.399428e+01  # O CO2
    190      64    1  -0.325600  4.522845e+01  5.139237e+01  4.136366e+01  # O CO2
    191      64    2   0.651200  4.581168e+01  5.059239e+01  4.196820e+01  # C CO2
    192      64    1  -0.325600  4.639492e+01  4.979241e+01  4.257274e+01  # O CO2
    193      65    1  -0.325600  4.390401e+01  4.234047e+01  1.472547e+01  # O CO2
    194      65    2   0.651200  4.285163e+01  4.188385e+01  1.455343e+01  # C CO2
    195      65    1  -0.325600  4.179925e+01  4.142722e+01  1.438139e+01  # O CO2
    196      66    1  -0.325600  7.693581e+00  1.578141e+00  7.791362e+00  # O CO2
    197      66    2   0.651200  8.115732e+00  2.656791e+00  7.853837e+00  # C CO2
    198      66    1  -0.325600  8.537883e+00  3.735441e+00  7.916313e+00  # O CO2
    199      67    1  -0.325600  1.290740e+01  1.379337e+01  4.434523e+01  # O CO2
    200      67    2   0.651200  1.405127e+01  1.367904e+01  4.450045e+01  # C CO2
    201      67    1  -0.325600  1.519513e+01  1.356470e+01  4.465568e+01  # O CO2
    202      68    1  -0.325600  1.771308e+01  1.838843e+01  5.300557e+01  # O CO2
    203      68    2   0.651200  1.670351e+01  1.863488e+01  5.249020e+01  # C CO2
    204      68    1  -0.325600  1.569393e+01  1.888133e+01  5.197482e+01  # O CO2
    205      69    1  -0.325600  1.492972e+01  4.422527e+01  3.118718e+01  # O CO2
    206      69    2   0.651200  1.420231e+01  4.507544e+01  3.088111e+01  # C CO2
    207      69    1  -0.325600  1.347489e+01  4.592561e+01  3.057504e+01  # O CO2
    208      70    1  -0.325600  4.651828e+01  4.229720e+01  1.107793e+01  # O CO2
    209      70    2   0.651200  4.577644e+01  4.140927e+01  1.099510e+01  # C CO2
    210      70    1  -0.325600  4.503460e+01  4.052134e+01  1.091227e+01  # O CO2
    211      71    1  -0.325600  2.654506e+01  5.320232e+01  5.281553e+01  # O CO2
    212      71    2   0.651200  2.567600e+01  5.343906e+01  5.354647e+01  # C CO2
    213      71    1  -0.325600  2.480693e+01  5.367579e+01  5.427742e+01  # O CO2
    214      72    1  -0.325600  8.765013e+00  2.682136e+01  5.040812e+01  # O CO2
    215      72    2   0.651200  7.881708e+00  2.629848e+01  4.986777e+01  # C CO2
    216      72    1  -0.325600  6.998404e+00  2.577561e+01  4.932742e+01  # O CO2
    217      73    1  -0.325600  7.107394e+00  3.433527e+00  4.579033e+01  # O CO2
    218      73    2   0.651200  8.012842e+00  4.135383e+00  4.597244e+01  # C CO2
    219      73    1  -0.325600  8.918289e+00  4.837238e+00  4.615455e+01  # O CO2
    220      74    1  -0.325600  8.295753e+00  4.439968e+01  2.670425e+01  # O CO2
    221      74    2   0.651200  8.700712e+00  4.331268e+01  2.669927e+01  # C CO2
    222      74    1  -0.325600  9.105672e+00  4.222567e+01  2.669430e+01  # O CO2
    223      75    1  -0.325600  4.991759e+01  5.196114e+01  4.919974e+01  # O CO2
    224      75    2   0.651200  4.951103e+01  5.092611e+01  4.886953e+01  # C CO2
    225      75    1  -0.325600  4.910446e+01  4.989109e+01  4.853933e+01  # O CO2
    226      76    1  -0.325600  5.211315e+01  3.037888e+01  5.291892e+01  # O CO2
    227      76    2   0.651200  5.326417e+01  3.049180e+01  5.300845e+01  # C CO2
    228      76    1  -0.325600  5.441518e+01  3.060472e+01  5.309798e+01  # O CO2
    229      77    1  -0.325600  3.922160e+01  2.455682e+01  1.157788e+01  # O CO2
    230      77    2   0.651200  3.970790e+01  2.550716e+01  1.112403e+01  # C CO2
    231      77    1  -0.325600  4.019420e+01  2.645749e+01  1.067018e+01  # O CO2
    232      78    1  -0.325600  1.647110e+01  4.791166e+01  4.522677e+01  # O CO2
    233      78    2   0.651200  1.552572e+01  4.855654e+01  4.541649e+01  # C CO2
    234      78    1  -0.325600  1.458034e+01  4.920141e+01  4.560622e+01  # O CO2
    235      79    1  -0.325600  4.157594e+01  4.422024e+01  4.993065e+01  # O CO2
    236      79    2   0.651200  4.144854e+01  4.310619e+01  5.022774e+01  # C CO2
    237      79    1  -0.325600  4.132115e+01  4.199214e+01  5.052482e+01  # O CO2
    238      80    1  -0.325600  1.400212e+01  4.690229e+01  3.466803e+01  # O CO2
    239      80    2   0.651200  1.478003e+01  4.696270e+01  3.380965e+01  # C CO2
    240      80    1  -0.325600  1.555793e+01  4.702311e+01  3.295128e+01  # O CO2
    241      81    1  -0.325600  4.822553e+01  2.843173e+01  8.388174e+00  # O CO2
    242      81    2   0.651200  4.864529e+01  2.842020e+01  9.469500e+00  # C CO2
    243      81    1  -0.325600  4.906505e+01  2.840868e+01  1.055083e+01  # O CO2
    244      82    1  -0.325600  4.975686e+00  4.203050e+01  3.162249e+01  # O CO2
    245      82    2   0.651200  4.151698e+00  4.281177e+01  3.185970e+01  # C CO2
    246      82    1  -0.325600  3.327710e+00  4.359303e+01  3.209690e+01  # O CO2
    247      83    1  -0.325600  1.426419e+01  4.941985e+01  5.112364e+01  # O CO2
    248      83    2   0.651200  1.453002e+01  4.849117e+01  5.048139e+01  # C CO2
    249      83    1  -0.325600  1.479585e+01  4.756249e+01  4.983914e+01  # O CO2
    250      84    1  -0.325600  3.173389e+01  3.436230e+00  3.500108e+00  # O CO2
    251      84    2   0.651200  3.079970e+01  4.082928e+00  3.266322e+00  # C CO2
    252      84    1  -0.325600  2.986550e+01  4.729627e+00  3.032535e+00  # O CO2
    253      85    1  -0.325600  5.006727e+01  1.892625e+01  4.678893e+01  # O CO2
    254      85    2   0.651200  5.073147e+01  1.875589e+01  4.585330e+01  # C CO2
    255      85    1  -0.325600  5.139568e+01  1.858554e+01  4.491766e+01  # O CO2
    256      86    1  -0.325600  5.021441e+01  1.580744e+00  6.660046e+00  # O CO2
    257      86    2   0.651200  5.085271e+01  2.548238e+00  6.706195e+00  # C CO2
    258      86    1  -0.325600  5.149101e+01  3.515732e+00  6.752345e+00  # O CO2
    259      87    1  -0.325600  1.773016e+01  2.475121e+01  4.122797e+01  # O CO2
    260      87    2   0.651200  1.779466e+01  2.565573e+01  4.195136e+01  # C CO2
    261      87    1  -0.325600  1.785915e+01  2.656024e+01  4.267475e+01  # O CO2
    262      88    1  -0.325600  3.152380e+01  1.873448e+01  4.517542e+01  # O CO2
    263      88    2   0.651200  3.083865e+01  1.881065e+01  4.424248e+01  # C CO2
    264      88    1  -0.325600  3.015351e+01  1.888683e+01  4.330954e+01  # O CO2
    265      89    1  -0.325600  3.655691e+01  2.686613e+00  4.979574e+01  # O CO2
    266      89    2   0.651200  3.592120e+01  3.166403e+00  5.063911e+01  # C CO2
    267      89    1  -0.325600  3.528549e+01  3.646192e+00  5.148248e+01  # O CO2
    268      90    1  -0.325600  3.736147e+00  3.266369e+01  5.078687e+00  # O CO2
    269      90    2   0.651200  3.562480e+00  3.381061e+01  5.076557e+00  # C CO2
    270      90    1  -0.325600  3.388813e+00  3.495754e+01  5.074427e+00  # O CO2
    271      91    1  -0.325600  5.113746e+01  5.414728e+01  1.676441e+01  # O CO2
    272      91    2   0.651200  5.111259e+01  5.320929e+01  1.744643e+01  # C CO2
    273      91    1  -0.325600  5.108772e+01  5.227129e+01  1.812845e+01  # O CO2
    274      92    1  -0.325600  4.039597e+01  3.774194e+01  3.034223e+01  # O CO2
    275      92    2   0.651200  3.930157e+01  3.797520e+01  3.003649e+01  # C CO2
    276      92    1  -0.325600  3.820717e+01  3.820846e+01  2.973075e+01  # O CO2
    277      93    1  -0.325600  1.148850e+01  2.109929e+01  5.042278e+01  # O CO2
    278      93    2   0.651200  1.122532e+01  2.169723e+01  4.946424e+01  # C CO2
    279      93    1  -0.325600  1.096213e+01  2.229517e+01  4.850570e+01  # O CO2
    280      94    1  -0.325600  1.942050e+01  3.539882e+01  2.688439e+01  # O CO2
    281      94    2   0.651200  1.896295e+01  3.448587e+01  2.743464e+01  # C CO2
    282      94    1  -0.325600  1.850540e+01  3.357292e+01  2.798488e+01  # O CO2
    283      95    1  -0.325600  4.919470e+01  7.992771e+00  1.136072e+01  # O CO2
    284      95    2   0.651200  4.836839e+01  7.932298e+00  1.054885e+01  # C CO2
    285      95    1  -0.325600  4.754207e+01  7.871825e+00  9.736968e+00  # O CO2
    286      96    1  -0.325600  2.763806e+01  2.448717e+01  3.790332e+01  # O CO2
    287      96    2   0.651200  2.840093e+01  2.381830e+01  3.846568e+01  # C CO2
    288      96    1  -0.325600  2.916380e+01  2.314943e+01  3.902803e+01  # O CO2
    289      97    1  -0.325600  7.951416e+00  9.080348e+00  3.913244e+00  # O CO2
    290      97    2   0.651200  9.026966e+00  9.502772e+00  3.811510e+00  # C CO2
    291      97    1  -0.325600  1.010252e+01  9.925196e+00  3.709776e+00  # O CO2
    292      98    1  -0.325600  5.163076e+01  2.511918e+01  2.308097e+01  # O CO2
    293      98    2   0.651200  5.241738e+01  2.583923e+01  2.353744e+01  # C CO2
    294      98    1  -0.325600  5.320399e+01  2.655928e+01  2.399391e+01  # O CO2
    295      99    1  -0.325600  1.825739e+01  2.312256e+01  4.700211e+01  # O CO2
    296      99    2   0.651200  1.896416e+01  2.396883e+01  4.736251e+01  # C CO2
    297      99    1  -0.325600  1.967094e+01  2.481511e+01  4.772292e+01  # O CO2
    298     100    1  -0.325600  5.162744e+01  3.675984e+01  9.055738e+00  # O CO2
    299     100    2   0.651200  5.198288e+01  3.591923e+01  8.339758e+00  # C CO2
    300     100    1  -0.325600  5.233832e+01  3.507861e+01  7.623778e+00  # O CO2
    301     101    1  -0.325600  3.485276e+00  3.556054e+01  5.201563e+01  # O CO2
    302     101    2   0.651200  2.503037e+00  3.615877e+01  5.186421e+01  # C CO2
    303     101    1  -0.325600  1.520799e+00  3.675701e+01  5.171279e+01  # O CO2
    304     102    1  -0.325600  4.049269e+01  2.051619e+01  5.124616e+01  # O CO2
    305     102    2   0.651200  3.977750e+01  2.018291e+01  5.209647e+01  # C CO2
    306     102    1  -0.325600  3.906231e+01  1.984962e+01  5.294678e+01  # O CO2
    307     103    1  -0.325600  2.154200e+01  8.738458e+00  1.798651e+01  # O CO2
    308     103    2   0.651200  2.156445e+01  7.578679e+00  1.798367e+01  # C CO2
    309     103    1  -0.325600  2.158689e+01  6.418900e+00  1.798084e+01  # O CO2
    310     104    1  -0.325600  5.340890e+01  1.812842e+01  5.427587e+01  # O CO2
    311     104    2   0.651200  5.254547e+01  1.849083e+01  5.359121e+01  # C CO2
    312     104    1  -0.325600  5.168205e+01  1.885324e+01  5.290654e+01  # O CO2
    313     105    1  -0.325600  3.786577e+01  4.506709e+01  4.366035e+00  # O CO2
    314     105    2   0.651200  3.784035e+01  4.560133e+01  3.336696e+00  # C CO2
    315     105    1  -0.325600  3.781492e+01  4.613558e+01  2.307358e+00  # O CO2
    316     106    1  -0.325600  2.452602e+01  2.563866e+01  1.218009e+01  # O CO2
    317     106    2   0.651200  2.341415e+01  2.550704e+01  1.248343e+01  # C CO2
    318     106    1  -0.325600  2.230228e+01  2.537542e+01  1.278677e+01  # O CO2
    319     107    1  -0.325600  3.113012e+01  3.210759e+01  3.897654e+01  # O CO2
    320     107    2   0.651200  3.020564e+01  3.216512e+01  3.967484e+01  # C CO2
    321     107    1  -0.325600  2.928115e+01  3.222265e+01  4.037313e+01  # O CO2
    322     108    1  -0.325600  2.157016e+01  5.218246e+01  3.322246e+01  # O CO2
    323     108    2   0.651200  2.185917e+01  5.329769e+01  3.335790e+01  # C CO2
    324     108    1  -0.325600  2.214817e+01  5.441292e+01  3.349333e+01  # O CO2
    325     109    1  -0.325600  6.795987e+00  7.668678e+00  2.160235e+01  # O CO2
    326     109    2   0.651200  6.595518e+00  8.420951e+00  2.246229e+01  # C CO2
    327     109    1  -0.325600  6.395049e+00  9.173223e+00  2.332223e+01  # O CO2
    328     110    1  -0.325600  5.863575e+00  4.438977e+01  2.982071e+01  # O CO2
    329     110    2   0.651200  6.012373e+00  4.514926e+01  2.895663e+01  # C CO2
    330     110    1  -0.325600  6.161172e+00  4.590876e+01  2.809256e+01  # O CO2
    331     111    1  -0.325600  1.631774e+01  4.559939e+01  9.142746e+00  # O CO2
    332     111    2   0.651200  1.713910e+01  4.596023e+01  8.407380e+00  # C CO2
    333     111    1  -0.325600  1.796046e+01  4.632107e+01  7.672013e+00  # O CO2
    334     112    1  -0.325600  4.902164e+01  7.558633e+00  1.449406e+01  # O CO2
    335     112    2   0.651200  4.841926e+01  8.318343e+00  1.513091e+01  # C CO2
    336     112    1  -0.325600  4.781687e+01  9.078053e+00  1.576775e+01  # O CO2
    337     113    1  -0.325600  2.789261e+01  4.346256e+01  5.301964e+01  # O CO2
    338     113    2   0.651200  2.749712e+01  4.329635e+01  5.194188e+01  # C CO2
    339     113    1  -0.325600  2.710164e+01  4.313013e+01  5.086412e+01  # O CO2
    340     114    1  -0.325600  2.537280e+01  1.103799e+01  2.322440e+01  # O CO2
    341     114    2   0.651200  2.431649e+01  1.121944e+01  2.366812e+01  # C CO2
    342     114    1  -0.325600  2.326018e+01  1.140089e+01  2.411184e+01  # O CO2
    343     115    1  -0.325600  2.081591e+01  2.596661e+01  9.294935e+00  # O CO2
    344     115    2   0.651200  1.992275e+01  2.666793e+01  9.531629e+00  # C CO2
    345     115    1  -0.325600  1.902959e+01  2.736925e+01  9.768323e+00  # O CO2
    346     116    1  -0.325600  9.483377e+00  4.222626e+01  1.008005e+01  # O CO2
    347     116    2   0.651200  8.965564e+00  4.157384e+01  9.272700e+00  # C CO2
    348     116    1  -0.325600  8.447752e+00  4.092142e+01  8.465346e+00  # O CO2
    349     117    1  -0.325600  1.577044e+01  2.486274e+01  3.322013e+01  # O CO2
    350     117    2   0.651200  1.558841e+01  2.597411e+01  3.349820e+01  # C CO2
    351     117    1  -0.325600  1.540637e+01  2.708548e+01  3.377626e+01  # O CO2
    352     118    1  -0.325600  2.041368e+01  3.392691e+01  9.728411e+00  # O CO2
    353     118    2   0.651200  1.960193e+01  3.378725e+01  1.054521e+01  # C CO2
    354     118    1  -0.325600  1.879017e+01  3.364758e+01  1.136200e+01  # O CO2
    355     119    1  -0.325600  1.246909e+01  2.578708e+01  2.019272e+01  # O CO2
    356     119    2   0.651200  1.180464e+01  2.614564e+01  2.107337e+01  # C CO2
    357     119    1  -0.325600  1.114019e+01  2.650421e+01  2.195401e+01  # O CO2
    358     120    1  -0.325600  2.994013e+01  5.040120e+01  3.518805e+01  # O CO2
    359     120    2   0.651200  3.018117e+01  4.929484e+01  3.493613e+01  # C CO2