LAMMPS (2 Aug 2023)
WARNING: Using I/O redirection is unreliable with parallel runs. Better to use the -in switch to read input files. (../lammps.cpp:537)
Reading data file ...
  orthogonal box = (0 0 0) to (29.285587 29.285587 195.23725)
  2 by 2 by 9 MPI processor grid
  reading atoms ...
  6000 atoms
  reading velocities ...
  6000 velocities
  scanning bonds ...
  1 = max bonds/atom
  scanning angles ...
  1 = max angles/atom
  reading bonds ...
  4000 bonds
  reading angles ...
  2000 angles
Finding 1-2 1-3 1-4 neighbors ...
  special bond factors lj:    0        0        0       
  special bond factors coul:  0        0        0       
     2 = max # of 1-2 neighbors
     1 = max # of 1-3 neighbors
     1 = max # of 1-4 neighbors
     2 = max # of special neighbors
  special bonds CPU = 0.002 seconds
  read_data CPU = 0.113 seconds
Step T_hot T_cold
Step Temp Pressure Total_Energy Volume Density x_length z_length Total_Heat_Flux
PPPM initialization ...
  using 12-bit tables for long-range coulomb (../kspace.cpp:342)
  G vector (1/distance) = 0.26789157
  grid = 32 32 128
  stencil order = 5
  estimated absolute RMS force accuracy = 0.00040684454
  estimated relative force accuracy = 1.2252003e-06
  using double precision KISS FFT
  3d grid and FFT values/proc = 13750 4096
Generated 1 of 1 mixed pair_coeff terms from arithmetic mixing rule
Neighbor list info ...
  update: every = 1 steps, delay = 0 steps, check = yes
  max neighbors/atom: 2000, page size: 100000
  master list distance cutoff = 15
  ghost atom cutoff = 15
  binsize = 7.5, bins = 4 4 27
  1 neighbor lists, perpetual/occasional/extra = 1 0 0
  (1) pair lj/cut/coul/long, perpetual
      attributes: half, newton on
      pair build: half/bin/newton
      stencil: half/bin/3d
      bin: standard
Setting up Verlet run ...
  Unit style    : real
  Current step  : 0
  Time step     : 0.5
0 0.0000 0.0000
0 302.541599545961 -119.632863854177 3045.7578736477998973 167444.36460268 0.87288082604120698083 29.28558687665359983 195.23724584435700535 0
Per MPI rank memory allocation (min/avg/max) = 8.155 | 8.21 | 8.242 Mbytes
   Step           Dt            Temp          Press          TotEng         Volume        Density        E_delta    
         0   0.5            302.5416      -119.63286      3045.7579      167444.36      0.87288083     0            
4000 304.642865934511 569.456038326193 3045.9445957919901957 167444.36460268 0.87288082604120598162 29.28558687665359983 195.23724584435700535 3.8916581363618099054
      4000   0.5            304.64287      569.45604      3045.9446      167444.36      0.87288083     3.8916581    
8000 304.695192686597 -314.314387897868 3045.9558263171397812 167444.36460268 0.87288082604120598162 29.28558687665359983 195.23724584435700535 7.2723751102980100924
      8000   0.5            304.69519     -314.31439      3045.9558      167444.36      0.87288083     7.2723751    
10000 301.1721 311.3283
12000 302.134412148569 324.023402051499 3045.7467978124700494 167444.36460268 0.87288082604120598162 29.28558687665359983 195.23724584435700535 10.329159562360199942
     12000   0.5            302.13441      324.0234       3045.7468      167444.36      0.87288083     10.32916     
16000 303.566048677652 -430.380732466816 3045.4546653220400003 167444.36460268 0.87288082604120598162 29.28558687665359983 195.23724584435700535 14.047860837476399354
     16000   0.5            303.56605     -430.38073      3045.4547      167444.36      0.87288083     14.047861    
20000 287.8964 305.3707
20000 304.778817531674 490.280165291937 3045.5452824922899708 167444.36460268 0.87288082604120598162 29.28558687665359983 195.23724584435700535 16.670890521587100608
     20000   0.5            304.77882      490.28017      3045.5453      167444.36      0.87288083     16.670891    
24000 302.489635839046 481.600417885625 3045.8084950376601228 167444.36460268 0.87288082604120598162 29.28558687665359983 195.23724584435700535 19.831043251462201482
     24000   0.5            302.48964      481.60042      3045.8085      167444.36      0.87288083     19.831043    
28000 301.482930292743 251.804823243169 3046.082194069309935 167444.36460268 0.87288082604120698083 29.28558687665359983 195.23724584435700535 23.69033720614260119
     28000   0.5            301.48293      251.80482      3046.0822      167444.36      0.87288083     23.690337    
30000 307.8871 297.6605
32000 298.670945920529 -696.817575684538 3046.0321454846298366 167444.36460268 0.87288082604120598162 29.28558687665359983 195.23724584435700535 27.110971323657100385
     32000   0.5            298.67095     -696.81758      3046.0321      167444.36      0.87288083     27.110971    
36000 304.249275822539 121.598660062429 3045.6336104390798027 167444.36460268 0.87288082604120598162 29.28558687665359983 195.23724584435700535 30.432053080053499627
     36000   0.5            304.24928      121.59866      3045.6336      167444.36      0.87288083     30.432053    
40000 310.7759 303.4453
40000 304.104614889266 112.114669569205 3045.9038762700902225 167444.36460268 0.87288082604120598162 29.28558687665359983 195.23724584435700535 35.387198358648703334
     40000   0.5            304.10461      112.11467      3045.9039      167444.36      0.87288083     35.387198    
44000 300.736955873803 1049.6026862078 3046.1038909151097869 167444.36460268 0.87288082604120598162 29.28558687665359983 195.23724584435700535 38.283861429245803265
     44000   0.5            300.73696      1049.6027      3046.1039      167444.36      0.87288083     38.283861    
48000 301.411533891329 532.797942547222 3046.0087746150798012 167444.36460268 0.87288082604120598162 29.28558687665359983 195.23724584435700535 41.023371922112801258
     48000   0.5            301.41153      532.79794      3046.0088      167444.36      0.87288083     41.023372    
50000 322.2268 292.2880
52000 301.51946788784 488.605592041414 3045.9409748180000861 167444.36460268 0.87288082604120598162 29.28558687665359983 195.23724584435700535 44.706225859855699412
     52000   0.5            301.51947      488.60559      3045.941       167444.36      0.87288083     44.706226    
56000 301.524140806 266.867256528253 3045.9596449397199649 167444.36460268 0.87288082604120598162 29.28558687665359983 195.23724584435700535 47.914382643519402905
     56000   0.5            301.52414      266.86726      3045.9596      167444.36      0.87288083     47.914383    
60000 319.8050 308.8009
60000 301.704667865356 252.239076596583 3046.0418590502699772 167444.36460268 0.87288082604120698083 29.28558687665359983 195.23724584435700535 51.999172064550101879
     60000   0.5            301.70467      252.23908      3046.0419      167444.36      0.87288083     51.999172    
64000 300.378815764844 443.065969693046 3046.0091087647201675 167444.36460268 0.87288082604120698083 29.28558687665359983 195.23724584435700535 55.723534260731000245
     64000   0.5            300.37882      443.06597      3046.0091      167444.36      0.87288083     55.723534    
68000 301.426483063113 -161.832964480509 3046.0748239852800907 167444.36460268 0.87288082604120698083 29.28558687665359983 195.23724584435700535 58.747210231673896885
     68000   0.5            301.42648     -161.83296      3046.0748      167444.36      0.87288083     58.74721     
70000 307.5189 307.9272
72000 301.094792581674 295.543185012442 3045.9342993033301354 167444.36460268 0.87288082604120598162 29.28558687665359983 195.23724584435700535 62.677329501513803223
     72000   0.5            301.09479      295.54319      3045.9343      167444.36      0.87288083     62.67733     
76000 300.270314148466 394.34695308842 3045.9600561038000706 167444.36460268 0.87288082604120698083 29.28558687665359983 195.23724584435700535 68.262977656607105814
     76000   0.5            300.27031      394.34695      3045.9601      167444.36      0.87288083     68.262978    
80000 296.1359 312.2581
80000 305.366667753035 108.555610730173 3045.9322426711200933 167444.36460268 0.87288082604120698083 29.28558687665359983 195.23724584435700535 72.160555567311405412
     80000   0.5            305.36667      108.55561      3045.9322      167444.36      0.87288083     72.160556    
84000 300.275804585546 -210.183576508527 3046.1521546448598201 167444.36460268 0.87288082604120598162 29.28558687665359983 195.23724584435700535 76.792169958800499785
     84000   0.5            300.2758      -210.18358      3046.1522      167444.36      0.87288083     76.79217     
88000 305.072034138338 872.976369355035 3045.8357978321000701 167444.36460268 0.87288082604120598162 29.28558687665359983 195.23724584435700535 81.580288018522097104
     88000   0.5            305.07203      872.97637      3045.8358      167444.36      0.87288083     81.580288    
90000 326.2105 312.2496
92000 300.624306035284 46.1220342291765 3045.7502661727398845 167444.36460268 0.87288082604120698083 29.28558687665359983 195.23724584435700535 84.642106823200194299
     92000   0.5            300.62431      46.122034      3045.7503      167444.36      0.87288083     84.642107    
96000 305.348159017219 280.384254642189 3045.5915068135300316 167444.36460268 0.87288082604120698083 29.28558687665359983 195.23724584435700535 88.300673427505600444
     96000   0.5            305.34816      280.38425      3045.5915      167444.36      0.87288083     88.300673    
100000 316.1359 289.9679
100000 297.915609293676 350.603651822997 3045.9368692124799054 167444.36460268 0.87288082604120698083 29.28558687665359983 195.23724584435700535 93.66382332254619314
    100000   0.5            297.91561      350.60365      3045.9369      167444.36      0.87288083     93.663823    
104000 301.131788848544 -179.797658418561 3045.91044272318004 167444.36460268 0.87288082604120598162 29.28558687665359983 195.23724584435700535 97.096639238356203805
    104000   0.5            301.13179     -179.79766      3045.9104      167444.36      0.87288083     97.096639    
108000 300.703085093548 23.4282852256842 3045.9984851338999761 167444.36460268 0.87288082604120598162 29.28558687665359983 195.23724584435700535 99.508215651659199352
    108000   0.5            300.70309      23.428285      3045.9985      167444.36      0.87288083     99.508216    
110000 327.7789 298.3772
112000 301.29282000209 23.6193560280989 3045.9685427447798247 167444.36460268 0.87288082604120698083 29.28558687665359983 195.23724584435700535 101.95047192170800088
    112000   0.5            301.29282      23.619356      3045.9685      167444.36      0.87288083     101.95047    
116000 300.573862504809 419.276880501586 3046.0755036265300078 167444.36460268 0.87288082604120698083 29.28558687665359983 195.23724584435700535 105.15669156044400268
    116000   0.5            300.57386      419.27688      3046.0755      167444.36      0.87288083     105.15669    
120000 324.5341 295.3245
120000 298.221519220478 -605.700890851441 3045.9751603808599612 167444.36460268 0.87288082604120698083 29.28558687665359983 195.23724584435700535 109.94826171724899666
    120000   0.5            298.22152     -605.70089      3045.9752      167444.36      0.87288083     109.94826    
124000 303.358478748271 194.30128459177 3045.7536774941800104 167444.36460268 0.87288082604120598162 29.28558687665359983 195.23724584435700535 114.52815858166499652
    124000   0.5            303.35848      194.30128      3045.7537      167444.36      0.87288083     114.52816    
128000 304.60183930775 308.31709301844 3045.7841719130501588 167444.36460268 0.87288082604120598162 29.28558687665359983 195.23724584435700535 118.48936206989199604
    128000   0.5            304.60184      308.31709      3045.7842      167444.36      0.87288083     118.48936    
130000 322.9881 296.4669
132000 302.641654846279 -90.2043217084196 3045.561693549319898 167444.36460268 0.87288082604120698083 29.28558687665359983 195.23724584435700535 120.58041686429399419
    132000   0.5            302.64165     -90.204322      3045.5617      167444.36      0.87288083     120.58042    
136000 303.271958001072 233.48459021213 3045.7002135436400749 167444.36460268 0.87288082604120698083 29.28558687665359983 195.23724584435700535 123.72408006439900419
    136000   0.5            303.27196      233.48459      3045.7002      167444.36      0.87288083     123.72408    
140000 323.6911 281.8489
140000 300.743058226261 10.8293560474565 3045.7646898156599491 167444.36460268 0.87288082604120698083 29.28558687665359983 195.23724584435700535 128.05760473658600063
    140000   0.5            300.74306      10.829356      3045.7647      167444.36      0.87288083     128.0576     
144000 300.527462104737 -148.273782676733 3045.8538925955399463 167444.36460268 0.87288082604120598162 29.28558687665359983 195.23724584435700535 131.09252246032698963
    144000   0.5            300.52746     -148.27378      3045.8539      167444.36      0.87288083     131.09252    
148000 303.723086355812 139.849717189073 3045.9185052589500629 167444.36460268 0.87288082604120698083 29.28558687665359983 195.23724584435700535 134.45152633143800358
    148000   0.5            303.72309      139.84972      3045.9185      167444.36      0.87288083     134.45153    
150000 330.0853 289.9069
152000 302.910933381132 109.508937990692 3045.9663078887401753 167444.36460268 0.87288082604120698083 29.28558687665359983 195.23724584435700535 137.97268848830199772
    152000   0.5            302.91093      109.50894      3045.9663      167444.36      0.87288083     137.97269    
156000 302.617427417377 -334.513247369685 3045.7371205301601549 167444.36460268 0.87288082604120598162 29.28558687665359983 195.23724584435700535 141.43993157820798956
    156000   0.5            302.61743     -334.51325      3045.7371      167444.36      0.87288083     141.43993    
160000 319.2576 300.3317
160000 303.522060413199 181.69976778323 3045.7283909061898157 167444.36460268 0.87288082604120598162 29.28558687665359983 195.23724584435700535 145.31524603390300854
    160000   0.5            303.52206      181.69977      3045.7284      167444.36      0.87288083     145.31525    
164000 303.20225162042 129.433321061423 3045.7641645417102154 167444.36460268 0.87288082604120698083 29.28558687665359983 195.23724584435700535 148.13833008257100232
    164000   0.5            303.20225      129.43332      3045.7642      167444.36      0.87288083     148.13833    
168000 300.435549065612 324.661200204729 3045.9913424769601988 167444.36460268 0.87288082604120598162 29.28558687665359983 195.23724584435700535 151.23397442064600682
    168000   0.5            300.43555      324.6612       3045.9913      167444.36      0.87288083     151.23397    
170000 322.5010 283.4534
172000 303.597631599166 247.220980712509 3045.9434211247898929 167444.36460268 0.87288082604120598162 29.28558687665359983 195.23724584435700535 154.75635696504699013
    172000   0.5            303.59763      247.22098      3045.9434      167444.36      0.87288083     154.75636    
176000 301.216460477019 391.08273767348 3045.8267262157601181 167444.36460268 0.87288082604120598162 29.28558687665359983 195.23724584435700535 158.57061197389000995
    176000   0.5            301.21646      391.08274      3045.8267      167444.36      0.87288083     158.57061    
180000 314.4292 286.0400
180000 302.666309104667 236.547465712076 3045.824040652290023 167444.36460268 0.87288082604120598162 29.28558687665359983 195.23724584435700535 161.53776128422299507
    180000   0.5            302.66631      236.54747      3045.824       167444.36      0.87288083     161.53776    
184000 302.892529561151 54.6783926275987 3045.8353860283100403 167444.36460268 0.87288082604120698083 29.28558687665359983 195.23724584435700535 165.20153846023501387
    184000   0.5            302.89253      54.678393      3045.8354      167444.36      0.87288083     165.20154    
188000 300.612539715128 640.703543993038 3045.6124183341698881 167444.36460268 0.87288082604120698083 29.28558687665359983 195.23724584435700535 168.19672226050698782
    188000   0.5            300.61254      640.70354      3045.6124      167444.36      0.87288083     168.19672    
190000 311.0245 286.9503
192000 301.59126472678 196.612223095955 3045.9421375623501262 167444.36460268 0.87288082604120698083 29.28558687665359983 195.23724584435700535 171.55822703404700746
    192000   0.5            301.59126      196.61222      3045.9421      167444.36      0.87288083     171.55823    
196000 300.03273993048 304.899393418765 3046.003102293289885 167444.36460268 0.87288082604120598162 29.28558687665359983 195.23724584435700535 175.04959169180099821
    196000   0.5            300.03274      304.89939      3046.0031      167444.36      0.87288083     175.04959    
200000 325.5321 303.9404
200000 303.982477378749 -151.757953681351 3045.9399906298999667 167444.36460268 0.87288082604120598162 29.28558687665359983 195.23724584435700535 178.78031736300098942
    200000   0.5            303.98248     -151.75795      3045.94        167444.36      0.87288083     178.78032    
204000 299.240934475651 159.111674826234 3046.0025873360800688 167444.36460268 0.87288082604120698083 29.28558687665359983 195.23724584435700535 183.27767378018000954
    204000   0.5            299.24093      159.11167      3046.0026      167444.36      0.87288083     183.27767    
208000 302.044081937286 699.531891768439 3045.5995504364900626 167444.36460268 0.87288082604120598162 29.28558687665359983 195.23724584435700535 185.81042239191000931
    208000   0.5            302.04408      699.53189      3045.5996      167444.36      0.87288083     185.81042    
210000 343.9299 285.6214
212000 303.41409497001 408.96215344891 3045.8387104030198316 167444.36460268 0.87288082604120698083 29.28558687665359983 195.23724584435700535 189.52025629565301301
    212000   0.5            303.41409      408.96215      3045.8387      167444.36      0.87288083     189.52026    
216000 302.504048562344 281.298908284115 3045.7836021855500803 167444.36460268 0.87288082604120598162 29.28558687665359983 195.23724584435700535 192.38375477603000263
    216000   0.5            302.50405      281.29891      3045.7836      167444.36      0.87288083     192.38375    
220000 328.0867 289.3896
220000 306.777493441683 -36.1179783114077 3045.4450821306099897 167444.36460268 0.87288082604120598162 29.28558687665359983 195.23724584435700535 195.96675459087398963
    220000   0.5            306.77749     -36.117978      3045.4451      167444.36      0.87288083     195.96675    
224000 304.479264842231 4.46069746666366 3045.6419123690798187 167444.36460268 0.87288082604120698083 29.28558687665359983 195.23724584435700535 200.76719657525501361
    224000   0.5            304.47926      4.4606975      3045.6419      167444.36      0.87288083     200.7672     
228000 303.28253273434 823.845061381116 3045.6037487287799195 167444.36460268 0.87288082604120598162 29.28558687665359983 195.23724584435700535 203.53961518006198617
    228000   0.5            303.28253      823.84506      3045.6037      167444.36      0.87288083     203.53962    
230000 319.1899 280.6223
232000 297.39776454933 -60.9598885689849 3045.7938078795900765 167444.36460268 0.87288082604120698083 29.28558687665359983 195.23724584435700535 207.31646821788100965
    232000   0.5            297.39776     -60.959889      3045.7938      167444.36      0.87288083     207.31647    
236000 301.250738144249 -199.937061086935 3045.641617123189917 167444.36460268 0.87288082604120598162 29.28558687665359983 195.23724584435700535 210.58078139379199456
    236000   0.5            301.25074     -199.93706      3045.6416      167444.36      0.87288083     210.58078    
240000 318.3137 284.5111
240000 303.096290566167 219.65959489251 3045.7492734795300748 167444.36460268 0.87288082604120598162 29.28558687665359983 195.23724584435700535 213.29577376465201155
    240000   0.5            303.09629      219.65959      3045.7493      167444.36      0.87288083     213.29577    
244000 300.452434310387 718.607141624409 3045.7257318764000047 167444.36460268 0.87288082604120598162 29.28558687665359983 195.23724584435700535 217.74526781442901324
    244000   0.5            300.45243      718.60714      3045.7257      167444.36      0.87288083     217.74527    
248000 301.820657172176 -472.278769601981 3045.7192923659499684 167444.36460268 0.87288082604120598162 29.28558687665359983 195.23724584435700535 221.32445949907599925
    248000   0.5            301.82066     -472.27877      3045.7193      167444.36      0.87288083     221.32446    
250000 314.0398 294.4509
252000 300.545270289049 38.343211591128 3045.6180593090098228 167444.36460268 0.87288082604120598162 29.28558687665359983 195.23724584435700535 225.50282521316100315
    252000   0.5            300.54527      38.343212      3045.6181      167444.36      0.87288083     225.50283    
256000 301.673269356045 -571.20911568661 3045.6271222387599664 167444.36460268 0.87288082604120698083 29.28558687665359983 195.23724584435700535 228.64945640190001086
    256000   0.5            301.67327     -571.20912      3045.6271      167444.36      0.87288083     228.64946    
260000 315.6678 283.0657
260000 300.166479815281 -280.671994381986 3045.5947224235101203 167444.36460268 0.87288082604120598162 29.28558687665359983 195.23724584435700535 232.08553076723600839
    260000   0.5            300.16648     -280.67199      3045.5947      167444.36      0.87288083     232.08553    
264000 300.777600892054 116.449268892365 3045.7572358940701633 167444.36460268 0.87288082604120698083 29.28558687665359983 195.23724584435700535 236.37911527070900775
    264000   0.5            300.7776       116.44927      3045.7572      167444.36      0.87288083     236.37912    
268000 300.264047202734 106.740491561357 3045.9109764008398997 167444.36460268 0.87288082604120698083 29.28558687665359983 195.23724584435700535 238.94206134954998788
    268000   0.5            300.26405      106.74049      3045.911       167444.36      0.87288083     238.94206    
270000 327.3888 292.4219
272000 303.489156649964 260.178671442148 3045.9894520151301549 167444.36460268 0.87288082604120698083 29.28558687665359983 195.23724584435700535 244.2162316746089914
    272000   0.5            303.48916      260.17867      3045.9895      167444.36      0.87288083     244.21623    
276000 301.37278401238 753.115078726108 3045.7747389527999076 167444.36460268 0.87288082604120598162 29.28558687665359983 195.23724584435700535 247.09745679413899211
    276000   0.5            301.37278      753.11508      3045.7747      167444.36      0.87288083     247.09746    
280000 313.3189 281.4812
280000 298.678692538609 643.021795933529 3046.0844535670198638 167444.36460268 0.87288082604120698083 29.28558687665359983 195.23724584435700535 249.98831941434198711
    280000   0.5            298.67869      643.0218       3046.0845      167444.36      0.87288083     249.98832    
284000 300.101201789756 654.449670568471 3045.5541245266399528 167444.36460268 0.87288082604120698083 29.28558687665359983 195.23724584435700535 252.8118651879210006
    284000   0.5            300.1012       654.44967      3045.5541      167444.36      0.87288083     252.81187    
288000 301.388901986693 44.3282806752114 3045.5390411118401062 167444.36460268 0.87288082604120698083 29.28558687665359983 195.23724584435700535 255.61567611786000498
    288000   0.5            301.3889       44.328281      3045.539       167444.36      0.87288083     255.61568    
290000 312.5366 282.3513
292000 300.35711932817 400.947473979207 3045.6641349291098777 167444.36460268 0.87288082604120698083 29.28558687665359983 195.23724584435700535 258.9002423148929779
    292000   0.5            300.35712      400.94747      3045.6641      167444.36      0.87288083     258.90024    
296000 302.617169488263 674.846718164028 3045.6824950270702175 167444.36460268 0.87288082604120598162 29.28558687665359983 195.23724584435700535 262.36926229388501497
    296000   0.5            302.61717      674.84672      3045.6825      167444.36      0.87288083     262.36926    
300000 324.1162 285.2711
300000 302.735731167212 882.995012285627 3045.8719281177500307 167444.36460268 0.87288082604120598162 29.28558687665359983 195.23724584435700535 266.81880435186002387
    300000   0.5            302.73573      882.99501      3045.8719      167444.36      0.87288083     266.8188     
304000 301.953761820659 227.364506438534 3045.7632147250901653 167444.36460268 0.87288082604120698083 29.28558687665359983 195.23724584435700535 270.72626146324898855
    304000   0.5            301.95376      227.36451      3045.7632      167444.36      0.87288083     270.72626    
308000 296.75792058289 411.837577978294 3045.9304993328300952 167444.36460268 0.87288082604120598162 29.28558687665359983 195.23724584435700535 274.04316039897400969
    308000   0.5            296.75792      411.83758      3045.9305      167444.36      0.87288083     274.04316    
310000 302.8160 280.5297
312000 297.510996427291 354.49019375862 3045.6703649515297911 167444.36460268 0.87288082604120698083 29.28558687665359983 195.23724584435700535 276.76607795581600158
    312000   0.5            297.511        354.49019      3045.6704      167444.36      0.87288083     276.76608    
316000 301.019139825075 -74.4846440778645 3045.6353598678101662 167444.36460268 0.87288082604120698083 29.28558687665359983 195.23724584435700535 280.58446566179998172
    316000   0.5            301.01914     -74.484644      3045.6354      167444.36      0.87288083     280.58447    
320000 320.0154 287.0741
320000 301.678805433485 469.49152270016 3045.3716149357701397 167444.36460268 0.87288082604120598162 29.28558687665359983 195.23724584435700535 283.47794125642798235
    320000   0.5            301.67881      469.49152      3045.3716      167444.36      0.87288083     283.47794    
324000 302.520545540823 337.938963297406 3045.4293368877501962 167444.36460268 0.87288082604120698083 29.28558687665359983 195.23724584435700535 286.47195142630602049
    324000   0.5            302.52055      337.93896      3045.4293      167444.36      0.87288083     286.47195    
328000 304.875132146031 472.472433081223 3045.3297204186301315 167444.36460268 0.87288082604120698083 29.28558687665359983 195.23724584435700535 290.56375008666401527
    328000   0.5            304.87513      472.47243      3045.3297      167444.36      0.87288083     290.56375    
330000 326.5245 280.5380
332000 299.765355980223 -363.991196962384 3045.419813374559908 167444.36460268 0.87288082604120598162 29.28558687665359983 195.23724584435700535 294.1647624633869782
    332000   0.5            299.76536     -363.9912       3045.4198      167444.36      0.87288083     294.16476    
336000 302.236410789957 -191.987036938489 3045.4851334874701934 167444.36460268 0.87288082604120598162 29.28558687665359983 195.23724584435700535 297.1128670580940252
    336000   0.5            302.23641     -191.98704      3045.4851      167444.36      0.87288083     297.11287    
340000 318.6675 284.0127
340000 302.253812708762 -236.617703185505 3045.2789971262700419 167444.36460268 0.87288082604120698083 29.28558687665359983 195.23724584435700535 301.27749244283899088
    340000   0.5            302.25381     -236.6177       3045.279       167444.36      0.87288083     301.27749    
344000 302.351250790898 -224.492459219061 3045.1245062155298911 167444.36460268 0.87288082604120598162 29.28558687665359983 195.23724584435700535 305.05459760816398784
    344000   0.5            302.35125     -224.49246      3045.1245      167444.36      0.87288083     305.0546     
348000 299.344793876618 298.226115985582 3045.2741690241300603 167444.36460268 0.87288082604120698083 29.28558687665359983 195.23724584435700535 307.70208822561801298
    348000   0.5            299.34479      298.22612      3045.2742      167444.36      0.87288083     307.70209    
350000 317.8590 283.1763
352000 299.16824623481 25.3154702093772 3045.3056919045798168 167444.36460268 0.87288082604120698083 29.28558687665359983 195.23724584435700535 311.33777264282599617
    352000   0.5            299.16825      25.31547       3045.3057      167444.36      0.87288083     311.33777    
356000 299.397136757853 156.418234642283 3045.4579377410800589 167444.36460268 0.87288082604120698083 29.28558687665359983 195.23724584435700535 316.01619454440401569
    356000   0.5            299.39714      156.41823      3045.4579      167444.36      0.87288083     316.01619    
360000 332.3195 286.0274
360000 300.416617896689 418.194083551801 3045.2766911060998609 167444.36460268 0.87288082604120698083 29.28558687665359983 195.23724584435700535 318.99116527849298564
    360000   0.5            300.41662      418.19408      3045.2767      167444.36      0.87288083     318.99117    
364000 302.457588043807 307.030300622711 3045.4292469599199649 167444.36460268 0.87288082604120698083 29.28558687665359983 195.23724584435700535 322.90210125650997952
    364000   0.5            302.45759      307.0303       3045.4292      167444.36      0.87288083     322.9021     
368000 300.563476259305 406.822144510705 3045.3791592215197852 167444.36460268 0.87288082604120698083 29.28558687665359983 195.23724584435700535 327.08232239644900119
    368000   0.5            300.56348      406.82214      3045.3792      167444.36      0.87288083     327.08232    
370000 333.4321 276.0107
372000 300.525748169782 152.196125398649 3045.3067118797098374 167444.36460268 0.87288082604120698083 29.28558687665359983 195.23724584435700535 330.56488464155199836
    372000   0.5            300.52575      152.19613      3045.3067      167444.36      0.87288083     330.56488    
376000 304.665152743293 293.124893533058 3045.1385728985301284 167444.36460268 0.87288082604120698083 29.28558687665359983 195.23724584435700535 334.79759139086297637
    376000   0.5            304.66515      293.12489      3045.1386      167444.36      0.87288083     334.79759    
380000 331.5438 278.0548
380000 301.61352068207 -21.9574219439021 3045.1701851710399751 167444.36460268 0.87288082604120698083 29.28558687665359983 195.23724584435700535 337.53690391383997849
    380000   0.5            301.61352     -21.957422      3045.1702      167444.36      0.87288083     337.5369     
384000 299.879457272842 659.600583990179 3045.3847256667700094 167444.36460268 0.87288082604120698083 29.28558687665359983 195.23724584435700535 340.73417829750002284
    384000   0.5            299.87946      659.60058      3045.3847      167444.36      0.87288083     340.73418    
388000 298.21084737184 253.70837334745 3045.4103743276800742 167444.36460268 0.87288082604120598162 29.28558687665359983 195.23724584435700535 344.73430751606002787
    388000   0.5            298.21085      253.70837      3045.4104      167444.36      0.87288083     344.73431    
390000 341.5745 275.8027
392000 302.382166143359 -22.3910846124354 3045.22220656915988 167444.36460268 0.87288082604120598162 29.28558687665359983 195.23724584435700535 348.70488090728599673
    392000   0.5            302.38217     -22.391085      3045.2222      167444.36      0.87288083     348.70488    
396000 303.437669155385 299.528674415051 3045.0585953795098249 167444.36460268 0.87288082604120698083 29.28558687665359983 195.23724584435700535 352.28607894952000379
    396000   0.5            303.43767      299.52867      3045.0586      167444.36      0.87288083     352.28608    
400000 335.2995 270.0149
400000 301.1435547582 533.893714473487 3045.23151413450978 167444.36460268 0.87288082604120698083 29.28558687665359983 195.23724584435700535 355.69500948600597212
    400000   0.5            301.14355      533.89371      3045.2315      167444.36      0.87288083     355.69501    
404000 300.378837311074 232.436111481318 3045.3156296363599722 167444.36460268 0.87288082604120698083 29.28558687665359983 195.23724584435700535 358.88451857777198484
    404000   0.5            300.37884      232.43611      3045.3156      167444.36      0.87288083     358.88452    
408000 299.445582496233 628.459601354955 3045.1115046367999639 167444.36460268 0.87288082604120598162 29.28558687665359983 195.23724584435700535 362.62474614099500059
    408000   0.5            299.44558      628.4596       3045.1115      167444.36      0.87288083     362.62475    
410000 344.8445 276.2097
412000 299.821938063471 379.46367582997 3045.4099495393797952 167444.36460268 0.87288082604120598162 29.28558687665359983 195.23724584435700535 366.19487674551601231
    412000   0.5            299.82194      379.46368      3045.4099      167444.36      0.87288083     366.19488    
416000 304.258282853665 228.570975651834 3045.1975751898899034 167444.36460268 0.87288082604120598162 29.28558687665359983 195.23724584435700535 369.60260173382698667
    416000   0.5            304.25828      228.57098      3045.1976      167444.36      0.87288083     369.6026     
420000 340.0573 270.2105
420000 299.619684017092 67.64950953744 3045.284121841149954 167444.36460268 0.87288082604120598162 29.28558687665359983 195.23724584435700535 372.4203660887640126
    420000   0.5            299.61968      67.64951       3045.2841      167444.36      0.87288083     372.42037    
424000 300.354292793783 -281.370979437519 3045.3376597391202267 167444.36460268 0.87288082604120598162 29.28558687665359983 195.23724584435700535 375.62260144869998157
    424000   0.5            300.35429     -281.37098      3045.3377      167444.36      0.87288083     375.6226     
428000 298.288064281901 199.57430826369 3045.6416453415799879 167444.36460268 0.87288082604120598162 29.28558687665359983 195.23724584435700535 378.98381809908102014
    428000   0.5            298.28806      199.57431      3045.6416      167444.36      0.87288083     378.98382    
430000 318.0600 276.9470
432000 299.831376857966 646.437869048083 3045.6103708112600543 167444.36460268 0.87288082604120698083 29.28558687665359983 195.23724584435700535 383.30507260583999596
    432000   0.5            299.83138      646.43787      3045.6104      167444.36      0.87288083     383.30507    
436000 300.927502983121 -278.573394404267 3045.3721520869198685 167444.36460268 0.87288082604120698083 29.28558687665359983 195.23724584435700535 386.53592413006100514
    436000   0.5            300.9275      -278.57339      3045.3722      167444.36      0.87288083     386.53592    
440000 342.9224 273.8861
440000 298.509400121956 197.468455235194 3045.3618859001999226 167444.36460268 0.87288082604120698083 29.28558687665359983 195.23724584435700535 389.26229531444198528
    440000   0.5            298.5094       197.46846      3045.3619      167444.36      0.87288083     389.2623     
444000 304.845742517152 -872.403533951117 3044.8755306111402206 167444.36460268 0.87288082604120698083 29.28558687665359983 195.23724584435700535 392.18374480427502249
    444000   0.5            304.84574     -872.40353      3044.8755      167444.36      0.87288083     392.18374    
448000 301.587927144144 -620.987124218433 3045.0719266893102031 167444.36460268 0.87288082604120598162 29.28558687665359983 195.23724584435700535 396.66199758940899756
    448000   0.5            301.58793     -620.98712      3045.0719      167444.36      0.87288083     396.662      
450000 336.6115 286.6227
452000 302.502663355027 169.271906660905 3045.105946746959944 167444.36460268 0.87288082604120598162 29.28558687665359983 195.23724584435700535 400.41697975680398258
    452000   0.5            302.50266      169.27191      3045.1059      167444.36      0.87288083     400.41698    
456000 303.239494079036 293.715572019228 3045.1487404750100723 167444.36460268 0.87288082604120598162 29.28558687665359983 195.23724584435700535 403.9837215814509932
    456000   0.5            303.23949      293.71557      3045.1487      167444.36      0.87288083     403.98372    
460000 328.6689 278.5945
460000 305.226225935883 -97.6124643625123 3045.2538861429698045 167444.36460268 0.87288082604120698083 29.28558687665359983 195.23724584435700535 408.51856430908100037
    460000   0.5            305.22623     -97.612464      3045.2539      167444.36      0.87288083     408.51856    
464000 299.833925241832 191.716937696364 3045.4211415728300381 167444.36460268 0.87288082604120698083 29.28558687665359983 195.23724584435700535 411.34289349586697426
    464000   0.5            299.83393      191.71694      3045.4211      167444.36      0.87288083     411.34289    
468000 302.458925401115 413.856715392101 3045.1901244231899 167444.36460268 0.87288082604120598162 29.28558687665359983 195.23724584435700535 415.1699172965110165
    468000   0.5            302.45893      413.85672      3045.1901      167444.36      0.87288083     415.16992    
470000 341.9353 270.2536
472000 299.30607887406 614.260722544256 3045.5886907781300579 167444.36460268 0.87288082604120698083 29.28558687665359983 195.23724584435700535 418.30918189840298282
    472000   0.5            299.30608      614.26072      3045.5887      167444.36      0.87288083     418.30918    
476000 302.69378050173 -122.709439652837 3045.3563376918000358 167444.36460268 0.87288082604120598162 29.28558687665359983 195.23724584435700535 422.57116604834698137
    476000   0.5            302.69378     -122.70944      3045.3563      167444.36      0.87288083     422.57117    
480000 367.1613 281.2030
480000 302.456659507555 156.442667044444 3045.3618398300400258 167444.36460268 0.87288082604120598162 29.28558687665359983 195.23724584435700535 427.75912966875199572
    480000   0.5            302.45666      156.44267      3045.3618      167444.36      0.87288083     427.75913    
484000 302.516414508848 -451.907876660808 3045.4245964450601605 167444.36460268 0.87288082604120698083 29.28558687665359983 195.23724584435700535 430.46439409409998689
    484000   0.5            302.51641     -451.90788      3045.4246      167444.36      0.87288083     430.46439    
488000 303.19423076525 -52.9604220844614 3045.4694985590799661 167444.36460268 0.87288082604120598162 29.28558687665359983 195.23724584435700535 433.73537575835098323
    488000   0.5            303.19423     -52.960422      3045.4695      167444.36      0.87288083     433.73538    
490000 347.4631 278.0331
492000 303.442163542745 -35.0633848118645 3045.2407880353798646 167444.36460268 0.87288082604120698083 29.28558687665359983 195.23724584435700535 436.9012188007860118
    492000   0.5            303.44216     -35.063385      3045.2408      167444.36      0.87288083     436.90122    
496000 301.523164659547 299.279011690558 3045.4890918734599836 167444.36460268 0.87288082604120598162 29.28558687665359983 195.23724584435700535 440.22003579855999078
    496000   0.5            301.52316      299.27901      3045.4891      167444.36      0.87288083     440.22004    
500000 353.5028 279.6343
500000 299.209842095831 -228.96458300334 3045.1767881207401842 167444.36460268 0.87288082604120598162 29.28558687665359983 195.23724584435700535 445.04035616452398472
    500000   0.5            299.20984     -228.96458      3045.1768      167444.36      0.87288083     445.04036    
504000 302.355641251335 -431.769664215182 3045.1927439784199123 167444.36460268 0.87288082604120598162 29.28558687665359983 195.23724584435700535 447.87041318052501992
    504000   0.5            302.35564     -431.76966      3045.1927      167444.36      0.87288083     447.87041    
508000 305.463593139222 279.451590805515 3045.2369310518001839 167444.36460268 0.87288082604120698083 29.28558687665359983 195.23724584435700535 450.92936493035801959
    508000   0.5            305.46359      279.45159      3045.2369      167444.36      0.87288083     450.92936    
510000 343.1999 275.5500
512000 303.636814721288 12.424283287936 3045.1155737058102204 167444.36460268 0.87288082604120598162 29.28558687665359983 195.23724584435700535 453.46910413292897601
    512000   0.5            303.63681      12.424283      3045.1156      167444.36      0.87288083     453.4691     
516000 302.133732086741 592.912453396365 3045.1621018245600681 167444.36460268 0.87288082604120698083 29.28558687665359983 195.23724584435700535 456.08676788505897548
    516000   0.5            302.13373      592.91245      3045.1621      167444.36      0.87288083     456.08677    
520000 331.7710 266.3694
520000 301.927492177392 431.897969262819 3044.972869171129787 167444.36460268 0.87288082604120698083 29.28558687665359983 195.23724584435700535 459.52195480999802157
    520000   0.5            301.92749      431.89797      3044.9729      167444.36      0.87288083     459.52195    
524000 303.613458028694 189.597444967987 3045.0011666899399643 167444.36460268 0.87288082604120598162 29.28558687665359983 195.23724584435700535 461.94425473845001306
    524000   0.5            303.61346      189.59744      3045.0012      167444.36      0.87288083     461.94425    
528000 298.86907392254 334.250644400485 3045.2079830766801933 167444.36460268 0.87288082604120598162 29.28558687665359983 195.23724584435700535 464.59066069623497697
    528000   0.5            298.86907      334.25064      3045.208       167444.36      0.87288083     464.59066    
530000 311.4769 266.9190
532000 304.049120626375 407.018761612218 3045.0720744106602069 167444.36460268 0.87288082604120698083 29.28558687665359983 195.23724584435700535 467.40361971364302462
    532000   0.5            304.04912      407.01876      3045.0721      167444.36      0.87288083     467.40362    
536000 302.530639544703 92.7031919219379 3045.2292518934900727 167444.36460268 0.87288082604120598162 29.28558687665359983 195.23724584435700535 469.65828237007900725
    536000   0.5            302.53064      92.703192      3045.2293      167444.36      0.87288083     469.65828    
540000 333.4953 278.2860
540000 299.869040771418 638.327364582105 3045.6040885715701734 167444.36460268 0.87288082604120698083 29.28558687665359983 195.23724584435700535 473.73121207262897769
    540000   0.5            299.86904      638.32736      3045.6041      167444.36      0.87288083     473.73121    
544000 300.418968665756 481.915127230753 3045.5032855384301911 167444.36460268 0.87288082604120598162 29.28558687665359983 195.23724584435700535 476.04025551212197342
    544000   0.5            300.41897      481.91513      3045.5033      167444.36      0.87288083     476.04026    
548000 300.464254045694 -13.9848450291434 3045.6577049913898918 167444.36460268 0.87288082604120598162 29.28558687665359983 195.23724584435700535 479.69466548846702381
    548000   0.5            300.46425     -13.984845      3045.6577      167444.36      0.87288083     479.69467    
550000 329.0818 281.9140
552000 304.596497933507 -124.514306251132 3045.3537297816901628 167444.36460268 0.87288082604120598162 29.28558687665359983 195.23724584435700535 483.0725568804700174
    552000   0.5            304.5965      -124.51431      3045.3537      167444.36      0.87288083     483.07256    
556000 302.071617241973 653.572337849529 3045.2774281543202051 167444.36460268 0.87288082604120698083 29.28558687665359983 195.23724584435700535 485.80459667216001662
    556000   0.5            302.07162      653.57234      3045.2774      167444.36      0.87288083     485.8046     
560000 321.0305 253.1892
560000 300.98338148712 746.359194104256 3045.308896495279896 167444.36460268 0.87288082604120698083 29.28558687665359983 195.23724584435700535 488.60345500087498749
    560000   0.5            300.98338      746.35919      3045.3089      167444.36      0.87288083     488.60346    
564000 301.903839397778 -647.907532317207 3045.3738299461501811 167444.36460268 0.87288082604120598162 29.28558687665359983 195.23724584435700535 491.60808252926199202
    564000   0.5            301.90384     -647.90753      3045.3738      167444.36      0.87288083     491.60808    
568000 296.574287105452 -321.871786564461 3045.3917003339402072 167444.36460268 0.87288082604120598162 29.28558687665359983 195.23724584435700535 494.14893008177199363
    568000   0.5            296.57429     -321.87179      3045.3917      167444.36      0.87288083     494.14893    
570000 326.7743 267.0809
572000 298.887660600317 117.519016470829 3045.4455523423598606 167444.36460268 0.87288082604120698083 29.28558687665359983 195.23724584435700535 497.00224564545999328
    572000   0.5            298.88766      117.51902      3045.4456      167444.36      0.87288083     497.00225    
576000 297.395031077267 -57.1937742782689 3045.3515634690102161 167444.36460268 0.87288082604120698083 29.28558687665359983 195.23724584435700535 500.36694494745097472
    576000   0.5            297.39503     -57.193774      3045.3516      167444.36      0.87288083     500.36694    
580000 328.0241 260.6704
580000 299.153498872226 32.3194860330444 3045.4574680173000161 167444.36460268 0.87288082604120598162 29.28558687665359983 195.23724584435700535 503.38030709264302232
    580000   0.5            299.1535       32.319486      3045.4575      167444.36      0.87288083     503.38031    
584000 303.269106083436 -152.594511423798 3045.3754018584299956 167444.36460268 0.87288082604120598162 29.28558687665359983 195.23724584435700535 507.20068086939301111
    584000   0.5            303.26911     -152.59451      3045.3754      167444.36      0.87288083     507.20068    
588000 305.778552119261 -135.446584919434 3045.2055135130199233 167444.36460268 0.87288082604120698083 29.28558687665359983 195.23724584435700535 509.91391184769997835
    588000   0.5            305.77855     -135.44658      3045.2055      167444.36      0.87288083     509.91391    
590000 335.4343 269.6969
592000 304.445282939751 19.8552337504434 3045.2715548404798938 167444.36460268 0.87288082604120598162 29.28558687665359983 195.23724584435700535 512.23220738049599277
    592000   0.5            304.44528      19.855234      3045.2716      167444.36      0.87288083     512.23221    
596000 305.703473545233 -18.8144177039506 3045.059172584659791 167444.36460268 0.87288082604120598162 29.28558687665359983 195.23724584435700535 515.04716796167201665
    596000   0.5            305.70347     -18.814418      3045.0592      167444.36      0.87288083     515.04717    
600000 342.3012 263.8066
600000 299.797673578776 481.883525731004 3045.2026378638602182 167444.36460268 0.87288082604120698083 29.28558687665359983 195.23724584435700535 518.61257066689904605
    600000   0.5            299.79767      481.88353      3045.2026      167444.36      0.87288083     518.61257    
604000 304.14171800289 -66.006795024094 3044.8537056008099171 167444.36460268 0.87288082604120598162 29.28558687665359983 195.23724584435700535 521.631816073175969
    604000   0.5            304.14172     -66.006795      3044.8537      167444.36      0.87288083     521.63182    
608000 301.099407235422 116.290261110039 3045.1060476177399323 167444.36460268 0.87288082604120698083 29.28558687665359983 195.23724584435700535 525.68742613333802183
    608000   0.5            301.09941      116.29026      3045.106       167444.36      0.87288083     525.68743    
610000 345.6059 274.7009
612000 301.640563734373 206.354832789388 3045.3114043420200687 167444.36460268 0.87288082604120598162 29.28558687665359983 195.23724584435700535 528.50743705200898148
    612000   0.5            301.64056      206.35483      3045.3114      167444.36      0.87288083     528.50744    
616000 301.2947333421 -339.600585588991 3045.2994114442199134 167444.36460268 0.87288082604120698083 29.28558687665359983 195.23724584435700535 532.88224925655401876
    616000   0.5            301.29473     -339.60059      3045.2994      167444.36      0.87288083     532.88225    
620000 356.7712 269.0303
620000 302.698331759566 -64.1210296510122 3045.3999341576800362 167444.36460268 0.87288082604120698083 29.28558687665359983 195.23724584435700535 536.24551794553997297
    620000   0.5            302.69833     -64.12103       3045.3999      167444.36      0.87288083     536.24552    
624000 299.486233001796 -239.330781212995 3045.3327254268401703 167444.36460268 0.87288082604120698083 29.28558687665359983 195.23724584435700535 539.39206845140199675
    624000   0.5            299.48623     -239.33078      3045.3327      167444.36      0.87288083     539.39207    
628000 301.483256239719 790.967440106418 3045.3310141493598167 167444.36460268 0.87288082604120598162 29.28558687665359983 195.23724584435700535 544.04209245909498804
    628000   0.5            301.48326      790.96744      3045.331       167444.36      0.87288083     544.04209    
630000 332.3661 270.5648
632000 302.816012282279 306.624706866072 3045.1806500651900933 167444.36460268 0.87288082604120598162 29.28558687665359983 195.23724584435700535 547.24588823763997425
    632000   0.5            302.81601      306.62471      3045.1807      167444.36      0.87288083     547.24589    
636000 297.101909090608 -144.053026466796 3045.1793399041598605 167444.36460268 0.87288082604120698083 29.28558687665359983 195.23724584435700535 550.42799522542600243
    636000   0.5            297.10191     -144.05303      3045.1793      167444.36      0.87288083     550.428      
640000 335.9670 270.4263
640000 302.549427178584 -164.727727371051 3045.2494079760099339 167444.36460268 0.87288082604120598162 29.28558687665359983 195.23724584435700535 553.14670610504697379
    640000   0.5            302.54943     -164.72773      3045.2494      167444.36      0.87288083     553.14671    
644000 300.81256709728 317.157994450407 3045.5106460566198621 167444.36460268 0.87288082604120698083 29.28558687665359983 195.23724584435700535 557.2193389212219472
    644000   0.5            300.81257      317.15799      3045.5106      167444.36      0.87288083     557.21934    
648000 299.384082398247 296.127960602676 3045.4101619560401559 167444.36460268 0.87288082604120698083 29.28558687665359983 195.23724584435700535 559.53473102296197794
    648000   0.5            299.38408      296.12796      3045.4102      167444.36      0.87288083     559.53473    
650000 333.9811 277.0310
652000 301.364686411596 224.085579361206 3045.2402070109801571 167444.36460268 0.87288082604120598162 29.28558687665359983 195.23724584435700535 563.69776135584800159
    652000   0.5            301.36469      224.08558      3045.2402      167444.36      0.87288083     563.69776    
656000 300.866100712917 -346.549799143983 3045.4875883008598976 167444.36460268 0.87288082604120698083 29.28558687665359983 195.23724584435700535 566.91076443991698852
    656000   0.5            300.8661      -346.5498       3045.4876      167444.36      0.87288083     566.91076    
660000 340.9821 283.9637
660000 300.812668390326 -236.105358574065 3045.1917217938598696 167444.36460268 0.87288082604120598162 29.28558687665359983 195.23724584435700535 569.92361170263302483
    660000   0.5            300.81267     -236.10536      3045.1917      167444.36      0.87288083     569.92361    
664000 299.492904381273 188.779644295974 3045.3903721199999381 167444.36460268 0.87288082604120698083 29.28558687665359983 195.23724584435700535 575.17821043980495688
    664000   0.5            299.4929       188.77964      3045.3904      167444.36      0.87288083     575.17821    
668000 303.42446695105 -155.820458238245 3045.3415579621901088 167444.36460268 0.87288082604120598162 29.28558687665359983 195.23724584435700535 577.97990831463505401
    668000   0.5            303.42447     -155.82046      3045.3416      167444.36      0.87288083     577.97991    
670000 349.4195 284.9435
672000 300.213087582381 681.765742395523 3045.4020234538998011 167444.36460268 0.87288082604120698083 29.28558687665359983 195.23724584435700535 581.54230807958595051
    672000   0.5            300.21309      681.76574      3045.402       167444.36      0.87288083     581.54231    
676000 303.280672999129 77.229375495433 3045.5360645925397876 167444.36460268 0.87288082604120698083 29.28558687665359983 195.23724584435700535 584.21721404959600932
    676000   0.5            303.28067      77.229375      3045.5361      167444.36      0.87288083     584.21721    
680000 333.9675 283.8509
680000 300.324949143481 -123.258241639109 3045.5426302936198226 167444.36460268 0.87288082604120598162 29.28558687665359983 195.23724584435700535 587.28287776973104428
    680000   0.5            300.32495     -123.25824      3045.5426      167444.36      0.87288083     587.28288    
684000 299.602071214579 -43.0049632362699 3045.2796516198700374 167444.36460268 0.87288082604120698083 29.28558687665359983 195.23724584435700535 590.90277873736295078
    684000   0.5            299.60207     -43.004963      3045.2797      167444.36      0.87288083     590.90278    
688000 301.948585764055 -419.717337091353 3045.4250521915000718 167444.36460268 0.87288082604120598162 29.28558687665359983 195.23724584435700535 594.84454495161401155
    688000   0.5            301.94859     -419.71734      3045.4251      167444.36      0.87288083     594.84454    
690000 316.4980 282.6670
692000 297.789574341023 137.116042701417 3045.3239451465101411 167444.36460268 0.87288082604120698083 29.28558687665359983 195.23724584435700535 597.94481022154002403
    692000   0.5            297.78957      137.11604      3045.3239      167444.36      0.87288083     597.94481    
696000 303.183452158565 -392.289492443287 3045.3296834040597787 167444.36460268 0.87288082604120598162 29.28558687665359983 195.23724584435700535 601.25374400253804197
    696000   0.5            303.18345     -392.28949      3045.3297      167444.36      0.87288083     601.25374    
700000 348.4075 279.2304
700000 300.101053872972 -71.0542285122191 3045.3975152196198906 167444.36460268 0.87288082604120598162 29.28558687665359983 195.23724584435700535 604.5881664332849823
    700000   0.5            300.10105     -71.054229      3045.3975      167444.36      0.87288083     604.58817    
704000 306.405350162902 -124.653423173589 3045.0696713307697792 167444.36460268 0.87288082604120598162 29.28558687665359983 195.23724584435700535 610.98695093260300837
    704000   0.5            306.40535     -124.65342      3045.0697      167444.36      0.87288083     610.98695    
708000 301.44366869288 219.666487155941 3045.4327224613298313 167444.36460268 0.87288082604120698083 29.28558687665359983 195.23724584435700535 616.2334348251620213
    708000   0.5            301.44367      219.66649      3045.4327      167444.36      0.87288083     616.23343    
710000 329.6209 292.1005
712000 300.307054583331 758.273063082484 3045.5848953252698266 167444.36460268 0.87288082604120598162 29.28558687665359983 195.23724584435700535 619.64292232955904183
    712000   0.5            300.30705      758.27306      3045.5849      167444.36      0.87288083     619.64292    
716000 301.561776391798 147.402794696248 3045.537381945260222 167444.36460268 0.87288082604120598162 29.28558687665359983 195.23724584435700535 622.66711467113202616
    716000   0.5            301.56178      147.40279      3045.5374      167444.36      0.87288083     622.66711    
720000 323.5591 282.1919
720000 300.434666289169 189.496056727398 3045.2440239446400483 167444.36460268 0.87288082604120698083 29.28558687665359983 195.23724584435700535 625.25352338277104991
    720000   0.5            300.43467      189.49606      3045.244       167444.36      0.87288083     625.25352    
724000 303.477708959672 -186.393843411376 3045.387320395379902 167444.36460268 0.87288082604120698083 29.28558687665359983 195.23724584435700535 628.27131061830402814
    724000   0.5            303.47771     -186.39384      3045.3873      167444.36      0.87288083     628.27131    
728000 299.210686156282 672.207357387266 3045.5122459743001855 167444.36460268 0.87288082604120598162 29.28558687665359983 195.23724584435700535 631.9808864727119726
    728000   0.5            299.21069      672.20736      3045.5122      167444.36      0.87288083     631.98089    
730000 333.5078 282.3970
732000 304.586746537758 806.733874522979 3045.1419711820899465 167444.36460268 0.87288082604120598162 29.28558687665359983 195.23724584435700535 637.50573786418897271
    732000   0.5            304.58675      806.73387      3045.142       167444.36      0.87288083     637.50574    
736000 299.295943264351 -37.4760336211645 3045.1794747423900844 167444.36460268 0.87288082604120598162 29.28558687665359983 195.23724584435700535 641.44588390947001244
    736000   0.5            299.29594     -37.476034      3045.1795      167444.36      0.87288083     641.44588    
740000 324.8312 281.2597
740000 303.168122395646 425.801382310816 3045.1888750378998338 167444.36460268 0.87288082604120598162 29.28558687665359983 195.23724584435700535 644.37634647805396071
    740000   0.5            303.16812      425.80138      3045.1889      167444.36      0.87288083     644.37635    
744000 301.918139560716 -408.209125843131 3045.1048255400201015 167444.36460268 0.87288082604120698083 29.28558687665359983 195.23724584435700535 647.79944289224704335
    744000   0.5            301.91814     -408.20913      3045.1048      167444.36      0.87288083     647.79944    
748000 299.005976542794 497.459490053863 3044.965278348549873 167444.36460268 0.87288082604120698083 29.28558687665359983 195.23724584435700535 651.23978062852495441
    748000   0.5            299.00598      497.45949      3044.9653      167444.36      0.87288083     651.23978    
750000 337.5426 272.8297
752000 303.031141767718 150.85681233014 3044.5862478876301793 167444.36460268 0.87288082604120598162 29.28558687665359983 195.23724584435700535 654.97353465891001179
    752000   0.5            303.03114      150.85681      3044.5862      167444.36      0.87288083     654.97353    
756000 303.788759754696 611.510111664322 3044.7523200506097965 167444.36460268 0.87288082604120598162 29.28558687665359983 195.23724584435700535 658.34225903250899137
    756000   0.5            303.78876      611.51011      3044.7523      167444.36      0.87288083     658.34226    
760000 345.5533 275.0356
760000 303.078278217038 347.8364694004 3044.7439791474898811 167444.36460268 0.87288082604120698083 29.28558687665359983 195.23724584435700535 661.15843957223898997
    760000   0.5            303.07828      347.83647      3044.744       167444.36      0.87288083     661.15844    
764000 300.758257754066 164.597829481401 3044.8582261755300351 167444.36460268 0.87288082604120598162 29.28558687665359983 195.23724584435700535 664.76910445373005132
    764000   0.5            300.75826      164.59783      3044.8582      167444.36      0.87288083     664.7691     
768000 300.39532642483 289.512045230197 3045.1192156892097955 167444.36460268 0.87288082604120598162 29.28558687665359983 195.23724584435700535 668.11832281400199918
    768000   0.5            300.39533      289.51205      3045.1192      167444.36      0.87288083     668.11832    
770000 324.9378 272.5256
772000 303.946920503324 -34.6504898018281 3045.4054184086799069 167444.36460268 0.87288082604120698083 29.28558687665359983 195.23724584435700535 670.02802474351994988
    772000   0.5            303.94692     -34.65049       3045.4054      167444.36      0.87288083     670.02802    
776000 300.875643683348 157.45252483686 3045.3912801612500516 167444.36460268 0.87288082604120698083 29.28558687665359983 195.23724584435700535 672.50100188549799896
    776000   0.5            300.87564      157.45252      3045.3913      167444.36      0.87288083     672.501      
780000 319.1659 268.2955
780000 301.520970925848 -69.1283896189645 3045.2632182868901509 167444.36460268 0.87288082604120598162 29.28558687665359983 195.23724584435700535 678.36088112654294946
    780000   0.5            301.52097     -69.12839       3045.2632      167444.36      0.87288083     678.36088    
784000 299.924486098333 -474.735598919418 3045.3420464895198165 167444.36460268 0.87288082604120598162 29.28558687665359983 195.23724584435700535 680.65630780782305465
    784000   0.5            299.92449     -474.7356       3045.342       167444.36      0.87288083     680.65631    
788000 300.639054804203 -452.543206831375 3045.3751219507498718 167444.36460268 0.87288082604120598162 29.28558687665359983 195.23724584435700535 684.92107984880601634
    788000   0.5            300.63905     -452.54321      3045.3751      167444.36      0.87288083     684.92108    
790000 344.0407 277.4515
792000 305.361938081001 36.9157465460214 3045.3465682880400891 167444.36460268 0.87288082604120598162 29.28558687665359983 195.23724584435700535 689.85134198608704992
    792000   0.5            305.36194      36.915747      3045.3466      167444.36      0.87288083     689.85134    
796000 299.116072747465 -465.717464771993 3045.6479714246602271 167444.36460268 0.87288082604120598162 29.28558687665359983 195.23724584435700535 693.54436497809797402
    796000   0.5            299.11607     -465.71746      3045.648       167444.36      0.87288083     693.54436    
800000 344.2949 281.2014
800000 301.42204271941 -235.596662142962 3045.5090473156201369 167444.36460268 0.87288082604120698083 29.28558687665359983 195.23724584435700535 696.71061514396001257
    800000   0.5            301.42204     -235.59666      3045.509       167444.36      0.87288083     696.71062    
804000 303.637894531462 -332.146161077441 3045.3283253641698138 167444.36460268 0.87288082604120698083 29.28558687665359983 195.23724584435700535 700.33237670211804016
    804000   0.5            303.63789     -332.14616      3045.3283      167444.36      0.87288083     700.33238    
808000 301.427516884476 296.567743528246 3045.3481899439498193 167444.36460268 0.87288082604120698083 29.28558687665359983 195.23724584435700535 703.21159080652205375
    808000   0.5            301.42752      296.56774      3045.3482      167444.36      0.87288083     703.21159    
810000 354.5493 292.2272
812000 300.769185825623 173.131260058063 3045.5610983938699974 167444.36460268 0.87288082604120598162 29.28558687665359983 195.23724584435700535 707.10647845986704851
    812000   0.5            300.76919      173.13126      3045.5611      167444.36      0.87288083     707.10648    
816000 304.962483857577 -24.9351358327688 3045.1443331551699885 167444.36460268 0.87288082604120598162 29.28558687665359983 195.23724584435700535 711.88401088910495673
    816000   0.5            304.96248     -24.935136      3045.1443      167444.36      0.87288083     711.88401    
820000 332.1930 284.2803
820000 299.263582872006 685.672621212928 3045.3502271932998156 167444.36460268 0.87288082604120698083 29.28558687665359983 195.23724584435700535 714.86821384005702384
    820000   0.5            299.26358      685.67262      3045.3502      167444.36      0.87288083     714.86821    
824000 299.404867971734 100.184517580526 3045.2452681005797785 167444.36460268 0.87288082604120698083 29.28558687665359983 195.23724584435700535 719.07192573297004401
    824000   0.5            299.40487      100.18452      3045.2453      167444.36      0.87288083     719.07193    
828000 302.043957902597 125.089682603445 3045.1552711759800331 167444.36460268 0.87288082604120598162 29.28558687665359983 195.23724584435700535 722.47778184376102217
    828000   0.5            302.04396      125.08968      3045.1553      167444.36      0.87288083     722.47778    
830000 318.0592 266.0358
832000 303.795865228644 26.4353039483189 3045.2727730987598989 167444.36460268 0.87288082604120598162 29.28558687665359983 195.23724584435700535 725.53934168205000788
    832000   0.5            303.79587      26.435304      3045.2728      167444.36      0.87288083     725.53934    
836000 301.817272299383 359.374689083522 3045.3384850391898908 167444.36460268 0.87288082604120698083 29.28558687665359983 195.23724584435700535 728.21291884063703037
    836000   0.5            301.81727      359.37469      3045.3385      167444.36      0.87288083     728.21292    
840000 322.4537 272.2315
840000 300.944591960721 250.150726266139 3045.3299116985799628 167444.36460268 0.87288082604120598162 29.28558687665359983 195.23724584435700535 731.62453677157395759
    840000   0.5            300.94459      250.15073      3045.3299      167444.36      0.87288083     731.62454    
844000 303.830335201888 175.389199724389 3044.9714915084300628 167444.36460268 0.87288082604120698083 29.28558687665359983 195.23724584435700535 734.65144543105498087
    844000   0.5            303.83034      175.3892       3044.9715      167444.36      0.87288083     734.65145    
848000 301.340150298388 -156.547559300078 3045.1343301414299276 167444.36460268 0.87288082604120598162 29.28558687665359983 195.23724584435700535 738.11150548277498729
    848000   0.5            301.34015     -156.54756      3045.1343      167444.36      0.87288083     738.11151    
850000 335.4061 277.0602
852000 303.286879984943 29.9012754855994 3045.1672278532000746 167444.36460268 0.87288082604120698083 29.28558687665359983 195.23724584435700535 742.83150394487199719
    852000   0.5            303.28688      29.901275      3045.1672      167444.36      0.87288083     742.8315     
856000 302.398900016949 -332.317703054001 3045.1712248720500611 167444.36460268 0.87288082604120598162 29.28558687665359983 195.23724584435700535 746.61161597057696326
    856000   0.5            302.3989      -332.3177       3045.1712      167444.36      0.87288083     746.61162    
860000 316.8396 268.8112
860000 305.066869269912 609.563993772519 3045.3447967763199813 167444.36460268 0.87288082604120698083 29.28558687665359983 195.23724584435700535 750.96502450288903674
    860000   0.5            305.06687      609.56399      3045.3448      167444.36      0.87288083     750.96502    
864000 304.018469537016 228.42462916608 3045.3474790812801984 167444.36460268 0.87288082604120598162 29.28558687665359983 195.23724584435700535 754.19223918221598524
    864000   0.5            304.01847      228.42463      3045.3475      167444.36      0.87288083     754.19224    
868000 302.536205627038 381.494769850185 3045.1873419162398022 167444.36460268 0.87288082604120598162 29.28558687665359983 195.23724584435700535 757.38771067272398341
    868000   0.5            302.53621      381.49477      3045.1873      167444.36      0.87288083     757.38771    
870000 330.2514 267.0022
872000 304.576501265785 -78.4553916845891 3045.1566972678201637 167444.36460268 0.87288082604120698083 29.28558687665359983 195.23724584435700535 760.50479157942402253
    872000   0.5            304.5765      -78.455392      3045.1567      167444.36      0.87288083     760.50479    
876000 300.665448566126 189.696259695379 3045.4106553163601347 167444.36460268 0.87288082604120598162 29.28558687665359983 195.23724584435700535 763.87958042439095152
    876000   0.5            300.66545      189.69626      3045.4107      167444.36      0.87288083     763.87958    
880000 309.0415 263.1292
880000 302.072629982276 1009.52516673589 3045.4749074989799738 167444.36460268 0.87288082604120598162 29.28558687665359983 195.23724584435700535 766.9787142849470456
    880000   0.5            302.07263      1009.5252      3045.4749      167444.36      0.87288083     766.97871    
884000 300.699905689569 158.529542408294 3045.5618587533899699 167444.36460268 0.87288082604120698083 29.28558687665359983 195.23724584435700535 770.59509535530401081
    884000   0.5            300.69991      158.52954      3045.5619      167444.36      0.87288083     770.5951     
888000 303.051221396742 -450.309044483014 3045.3360521755898844 167444.36460268 0.87288082604120698083 29.28558687665359983 195.23724584435700535 773.56829239535204579
    888000   0.5            303.05122     -450.30904      3045.3361      167444.36      0.87288083     773.56829    
890000 320.6955 273.5501
892000 302.270128963586 113.04345731842 3045.5178689621998274 167444.36460268 0.87288082604120598162 29.28558687665359983 195.23724584435700535 776.02431848991000152
    892000   0.5            302.27013      113.04346      3045.5179      167444.36      0.87288083     776.02432    
896000 303.51560882724 -272.29914063659 3045.4222253945899865 167444.36460268 0.87288082604120698083 29.28558687665359983 195.23724584435700535 780.74783992615505213
    896000   0.5            303.51561     -272.29914      3045.4222      167444.36      0.87288083     780.74784    
900000 316.2702 269.0098
900000 303.329512253967 45.4626112955834 3045.3454955193201386 167444.36460268 0.87288082604120598162 29.28558687665359983 195.23724584435700535 784.58682029090698506
    900000   0.5            303.32951      45.462611      3045.3455      167444.36      0.87288083     784.58682    
904000 303.158651008242 366.144400485015 3045.2626946374698491 167444.36460268 0.87288082604120598162 29.28558687665359983 195.23724584435700535 788.09761062734696679
    904000   0.5            303.15865      366.1444       3045.2627      167444.36      0.87288083     788.09761    
908000 304.673946462714 341.14089794256 3045.3417971001599653 167444.36460268 0.87288082604120698083 29.28558687665359983 195.23724584435700535 791.86474471704400457
    908000   0.5            304.67395      341.1409       3045.3418      167444.36      0.87288083     791.86474    
910000 323.0345 273.8755
912000 302.611177632934 574.980694795667 3045.2451609444001406 167444.36460268 0.87288082604120598162 29.28558687665359983 195.23724584435700535 794.42567454070399435
    912000   0.5            302.61118      574.98069      3045.2452      167444.36      0.87288083     794.42567    
916000 302.444389223822 452.704121964705 3045.3416852768100398 167444.36460268 0.87288082604120698083 29.28558687665359983 195.23724584435700535 797.86164739964601722
    916000   0.5            302.44439      452.70412      3045.3417      167444.36      0.87288083     797.86165    
920000 336.6520 270.9342
920000 300.313740196237 148.213147970322 3045.4119886282401239 167444.36460268 0.87288082604120598162 29.28558687665359983 195.23724584435700535 801.23951215143699756
    920000   0.5            300.31374      148.21315      3045.412       167444.36      0.87288083     801.23951    
924000 300.069053577939 521.15280328171 3045.5398653829101931 167444.36460268 0.87288082604120598162 29.28558687665359983 195.23724584435700535 804.09695126656004049
    924000   0.5            300.06905      521.1528       3045.5399      167444.36      0.87288083     804.09695    
928000 299.712738834732 -24.2184286233355 3045.4610529429601229 167444.36460268 0.87288082604120598162 29.28558687665359983 195.23724584435700535 807.03640273744497335
    928000   0.5            299.71274     -24.218429      3045.4611      167444.36      0.87288083     807.0364     
930000 335.5575 264.6668
932000 299.870754658473 633.506139067678 3045.7237924971300345 167444.36460268 0.87288082604120698083 29.28558687665359983 195.23724584435700535 810.75151135146495562
    932000   0.5            299.87075      633.50614      3045.7238      167444.36      0.87288083     810.75151    
936000 300.431440517906 -235.748379271479 3046.0049892988599822 167444.36460268 0.87288082604120598162 29.28558687665359983 195.23724584435700535 814.38796385977798309
    936000   0.5            300.43144     -235.74838      3046.005       167444.36      0.87288083     814.38796    
940000 346.1467 267.1007
940000 300.046527657088 345.542880308408 3045.6906764447298883 167444.36460268 0.87288082604120698083 29.28558687665359983 195.23724584435700535 816.87545431020498654
    940000   0.5            300.04653      345.54288      3045.6907      167444.36      0.87288083     816.87545    
944000 300.515500590884 -267.466296975038 3045.6368630584602215 167444.36460268 0.87288082604120598162 29.28558687665359983 195.23724584435700535 819.49942810032405305
    944000   0.5            300.5155      -267.4663       3045.6369      167444.36      0.87288083     819.49943    
948000 302.512527052988 204.580288619533 3045.2915527413101699 167444.36460268 0.87288082604120598162 29.28558687665359983 195.23724584435700535 824.37196274217103564
    948000   0.5            302.51253      204.58029      3045.2916      167444.36      0.87288083     824.37196    
950000 336.5718 259.7474
952000 303.069164776774 100.750045841623 3045.1802090319301897 167444.36460268 0.87288082604120698083 29.28558687665359983 195.23724584435700535 827.31553086301801159
    952000   0.5            303.06916      100.75005      3045.1802      167444.36      0.87288083     827.31553    
956000 302.195279159992 740.82622919866 3045.2728274965998025 167444.36460268 0.87288082604120698083 29.28558687665359983 195.23724584435700535 831.47532420854304291
    956000   0.5            302.19528      740.82623      3045.2728      167444.36      0.87288083     831.47532    
960000 329.3422 252.8785
960000 302.476762068503 534.022891073553 3045.1427467083399279 167444.36460268 0.87288082604120598162 29.28558687665359983 195.23724584435700535 834.02480491778101168
    960000   0.5            302.47676      534.02289      3045.1427      167444.36      0.87288083     834.0248     
964000 299.437786922377 61.3783510562742 3045.3493801912800336 167444.36460268 0.87288082604120598162 29.28558687665359983 195.23724584435700535 837.14777709046404652
    964000   0.5            299.43779      61.378351      3045.3494      167444.36      0.87288083     837.14778    
968000 304.262056539979 385.423556807603 3045.0674971179901149 167444.36460268 0.87288082604120698083 29.28558687665359983 195.23724584435700535 841.26724032887705107
    968000   0.5            304.26206      385.42356      3045.0675      167444.36      0.87288083     841.26724    
970000 337.1957 268.4532
972000 305.519882225859 777.62993235145 3044.9971776860597856 167444.36460268 0.87288082604120598162 29.28558687665359983 195.23724584435700535 846.08370095203599703
    972000   0.5            305.51988      777.62993      3044.9972      167444.36      0.87288083     846.0837     
976000 299.279461227099 -29.8950738858743 3045.4011403746999349 167444.36460268 0.87288082604120598162 29.28558687665359983 195.23724584435700535 849.46320565651194556
    976000   0.5            299.27946     -29.895074      3045.4011      167444.36      0.87288083     849.46321    
980000 342.9780 262.1077
980000 298.589496945578 32.3462588259743 3045.4107936964201144 167444.36460268 0.87288082604120698083 29.28558687665359983 195.23724584435700535 852.54319137194204359
    980000   0.5            298.5895       32.346259      3045.4108      167444.36      0.87288083     852.54319    
984000 303.06989230327 571.781341852575 3045.3442228831900138 167444.36460268 0.87288082604120598162 29.28558687665359983 195.23724584435700535 855.4388909489659909
    984000   0.5            303.06989      571.78134      3045.3442      167444.36      0.87288083     855.43889    
988000 300.550515613576 605.946014229964 3045.4885358606397858 167444.36460268 0.87288082604120598162 29.28558687665359983 195.23724584435700535 858.46710764554302386
    988000   0.5            300.55052      605.94601      3045.4885      167444.36      0.87288083     858.46711    
990000 336.1227 263.6480
992000 298.987942637924 225.926155399603 3045.7701335855599609 167444.36460268 0.87288082604120598162 29.28558687665359983 195.23724584435700535 861.99879510855498665
    992000   0.5            298.98794      225.92616      3045.7701      167444.36      0.87288083     861.9988     
996000 299.992593714515 41.7782468274508 3045.5901470066301044 167444.36460268 0.87288082604120698083 29.28558687665359983 195.23724584435700535 865.25076410013400618
    996000   0.5            299.99259      41.778247      3045.5901      167444.36      0.87288083     865.25076    
1000000 343.7023 273.0933
1000000 302.332070091946 -68.3622365947964 3045.8186521476600319 167444.36460268 0.87288082604120598162 29.28558687665359983 195.23724584435700535 868.25767469445804636
   1000000   0.5            302.33207     -68.362237      3045.8187      167444.36      0.87288083     868.25767    
1004000 302.047611296075 825.481172226664 3045.8479483635101133 167444.36460268 0.87288082604120698083 29.28558687665359983 195.23724584435700535 872.19116743050904006
   1004000   0.5            302.04761      825.48117      3045.8479      167444.36      0.87288083     872.19117    
1008000 302.919198458125 -403.073318206938 3045.6873449753197747 167444.36460268 0.87288082604120598162 29.28558687665359983 195.23724584435700535 874.87136538910101535
   1008000   0.5            302.9192      -403.07332      3045.6873      167444.36      0.87288083     874.87137    
1010000 330.8252 273.3341
1012000 302.942191007877 -179.958989538049 3045.6572762224100188 167444.36460268 0.87288082604120698083 29.28558687665359983 195.23724584435700535 877.39138762243794645
   1012000   0.5            302.94219     -179.95899      3045.6573      167444.36      0.87288083     877.39139    
1016000 300.256529538281 -233.551837468552 3045.6987131808000413 167444.36460268 0.87288082604120598162 29.28558687665359983 195.23724584435700535 880.1702189356310555
   1016000   0.5            300.25653     -233.55184      3045.6987      167444.36      0.87288083     880.17022    
1020000 332.5816 256.9832
1020000 297.858367221884 68.839420208988 3045.3948497577898706 167444.36460268 0.87288082604120598162 29.28558687665359983 195.23724584435700535 883.13352915759696771
   1020000   0.5            297.85837      68.83942       3045.3948      167444.36      0.87288083     883.13353    
1024000 298.166163732166 418.834598421246 3045.7398238648402184 167444.36460268 0.87288082604120698083 29.28558687665359983 195.23724584435700535 886.09616784606498641
   1024000   0.5            298.16616      418.8346       3045.7398      167444.36      0.87288083     886.09617    
1028000 295.697244244734 47.3773605820622 3045.9034038143099679 167444.36460268 0.87288082604120698083 29.28558687665359983 195.23724584435700535 888.38505402817497725
   1028000   0.5            295.69724      47.377361      3045.9034      167444.36      0.87288083     888.38505    
1030000 328.6907 247.1821
1032000 303.326605821749 489.934514390706 3045.496348198169926 167444.36460268 0.87288082604120698083 29.28558687665359983 195.23724584435700535 891.8983689218219979
   1032000   0.5            303.32661      489.93451      3045.4963      167444.36      0.87288083     891.89837    
1036000 304.071507928248 347.870378697273 3045.2562322485600816 167444.36460268 0.87288082604120598162 29.28558687665359983 195.23724584435700535 895.80670856103097321
   1036000   0.5            304.07151      347.87038      3045.2562      167444.36      0.87288083     895.80671    
1040000 326.9622 267.5064
1040000 300.945687488941 692.866922746113 3045.4008223304599596 167444.36460268 0.87288082604120698083 29.28558687665359983 195.23724584435700535 898.24563826556902768
   1040000   0.5            300.94569      692.86692      3045.4008      167444.36      0.87288083     898.24564    
1044000 301.883057163589 163.299852229829 3045.388672008300091 167444.36460268 0.87288082604120698083 29.28558687665359983 195.23724584435700535 901.79882905784597824
   1044000   0.5            301.88306      163.29985      3045.3887      167444.36      0.87288083     901.79883    
1048000 301.398769911985 850.054015795555 3044.9908000472401 167444.36460268 0.87288082604120698083 29.28558687665359983 195.23724584435700535 905.53529278857604368
   1048000   0.5            301.39877      850.05402      3044.9908      167444.36      0.87288083     905.53529    
1050000 337.3194 267.9473
1052000 302.443222074435 -47.5538928048064 3045.1110307710300731 167444.36460268 0.87288082604120698083 29.28558687665359983 195.23724584435700535 908.15994534461299281
   1052000   0.5            302.44322     -47.553893      3045.111       167444.36      0.87288083     908.15995    
1056000 300.957726200364 -121.644845706715 3045.1768392974599919 167444.36460268 0.87288082604120698083 29.28558687665359983 195.23724584435700535 911.43556136957397484
   1056000   0.5            300.95773     -121.64485      3045.1768      167444.36      0.87288083     911.43556    
1060000 333.4340 268.8255
[...]
19750000 347.0551 268.2087
19752000 300.287236848543 3.43097729788721 3053.9213500643500083 167444.36460268 0.87288082604120598162 29.28558687665359983 195.23724584435700535 16182.716825581699595
  19752000   0.5            300.28724      3.4309773      3053.9214      167444.36      0.87288083     16182.717    
19756000 300.375396512077 -257.949217740241 3053.9454392719699172 167444.36460268 0.87288082604120598162 29.28558687665359983 195.23724584435700535 16185.069176082799459
  19756000   0.5            300.3754      -257.94922      3053.9454      167444.36      0.87288083     16185.069    
19760000 329.5246 249.0546
19760000 301.135763073793 -235.509475621779 3054.1217251081197901 167444.36460268 0.87288082604120698083 29.28558687665359983 195.23724584435700535 16187.662112305100891
  19760000   0.5            301.13576     -235.50948      3054.1217      167444.36      0.87288083     16187.662    
19764000 295.174265939419 78.0595339108905 3054.3298557535399596 167444.36460268 0.87288082604120598162 29.28558687665359983 195.23724584435700535 16190.07078756249939
  19764000   0.5            295.17427      78.059534      3054.3299      167444.36      0.87288083     16190.071    
19768000 298.045906699286 355.474025760145 3054.4282875056801458 167444.36460268 0.87288082604120698083 29.28558687665359983 195.23724584435700535 16195.207430872400437
  19768000   0.5            298.04591      355.47403      3054.4283      167444.36      0.87288083     16195.207    
19770000 336.7522 255.0987
19772000 295.742427613676 -82.1324800080194 3054.1020088587902137 167444.36460268 0.87288082604120598162 29.28558687665359983 195.23724584435700535 16197.982558671199513
  19772000   0.5            295.74243     -82.13248       3054.102       167444.36      0.87288083     16197.983    
19776000 297.878331722317 98.5768956900894 3054.0880349302801733 167444.36460268 0.87288082604120698083 29.28558687665359983 195.23724584435700535 16200.07139105349961
  19776000   0.5            297.87833      98.576896      3054.088       167444.36      0.87288083     16200.071    
19780000 357.5048 250.2220
19780000 299.464864796493 463.456441800408 3053.9644065909401434 167444.36460268 0.87288082604120698083 29.28558687665359983 195.23724584435700535 16203.039768960299625
  19780000   0.5            299.46486      463.45644      3053.9644      167444.36      0.87288083     16203.04     
19784000 298.608992247602 832.174898988649 3053.9507717715800936 167444.36460268 0.87288082604120598162 29.28558687665359983 195.23724584435700535 16206.355811421899489
  19784000   0.5            298.60899      832.1749       3053.9508      167444.36      0.87288083     16206.356    
19788000 298.274886480128 -142.023823384533 3053.8946020890898581 167444.36460268 0.87288082604120598162 29.28558687665359983 195.23724584435700535 16209.193885585000316
  19788000   0.5            298.27489     -142.02382      3053.8946      167444.36      0.87288083     16209.194    
19790000 328.0453 255.5291
19792000 302.132893828728 292.021518389385 3053.7859424318799029 167444.36460268 0.87288082604120598162 29.28558687665359983 195.23724584435700535 16213.135155330099224
  19792000   0.5            302.13289      292.02152      3053.7859      167444.36      0.87288083     16213.135    
19796000 299.22999324337 423.080252757304 3053.558184375449855 167444.36460268 0.87288082604120698083 29.28558687665359983 195.23724584435700535 16216.801396052600467
  19796000   0.5            299.22999      423.08025      3053.5582      167444.36      0.87288083     16216.801    
19800000 341.5763 262.3786
19800000 297.382626531095 446.365596592454 3053.8666603019901231 167444.36460268 0.87288082604120598162 29.28558687665359983 195.23724584435700535 16220.980170900200392
  19800000   0.5            297.38263      446.3656       3053.8667      167444.36      0.87288083     16220.98     
19804000 297.460225989643 249.611833306684 3054.1017228516798241 167444.36460268 0.87288082604120698083 29.28558687665359983 195.23724584435700535 16223.978846494299432
  19804000   0.5            297.46023      249.61183      3054.1017      167444.36      0.87288083     16223.979    
19808000 297.264048597401 -8.70688063114829 3054.1493002703500679 167444.36460268 0.87288082604120598162 29.28558687665359983 195.23724584435700535 16226.808952074399713
  19808000   0.5            297.26405     -8.7068806      3054.1493      167444.36      0.87288083     16226.809    
19810000 357.7664 258.8247
19812000 296.589089148341 -22.9842155206074 3054.0769888966901817 167444.36460268 0.87288082604120598162 29.28558687665359983 195.23724584435700535 16231.177327742499983
  19812000   0.5            296.58909     -22.984216      3054.077       167444.36      0.87288083     16231.177    
19816000 294.866166553355 432.779036727374 3053.8981726671800061 167444.36460268 0.87288082604120698083 29.28558687665359983 195.23724584435700535 16233.849042671999996
  19816000   0.5            294.86617      432.77904      3053.8982      167444.36      0.87288083     16233.849    
19820000 336.5380 260.0205
19820000 299.776067004311 385.502920555507 3053.4492623757000729 167444.36460268 0.87288082604120698083 29.28558687665359983 195.23724584435700535 16238.018687770199904
  19820000   0.5            299.77607      385.50292      3053.4493      167444.36      0.87288083     16238.019    
19824000 301.583876622365 693.127956764489 3053.1471859080397735 167444.36460268 0.87288082604120598162 29.28558687665359983 195.23724584435700535 16240.997065191200818
  19824000   0.5            301.58388      693.12796      3053.1472      167444.36      0.87288083     16240.997    
19828000 302.768089389786 355.694589255035 3053.2051293495401296 167444.36460268 0.87288082604120598162 29.28558687665359983 195.23724584435700535 16243.855770761199892
  19828000   0.5            302.76809      355.69459      3053.2051      167444.36      0.87288083     16243.856    
19830000 346.3850 256.4036
19832000 302.337837715567 -18.8516860234938 3053.4124227185598102 167444.36460268 0.87288082604120598162 29.28558687665359983 195.23724584435700535 16246.635715209300542
  19832000   0.5            302.33784     -18.851686      3053.4124      167444.36      0.87288083     16246.636    
19836000 298.399171913143 553.723455217081 3053.896315456910088 167444.36460268 0.87288082604120698083 29.28558687665359983 195.23724584435700535 16248.8908424457004
  19836000   0.5            298.39917      553.72346      3053.8963      167444.36      0.87288083     16248.891    
19840000 345.1753 243.6563
19840000 300.972985719264 -50.4190845656514 3054.0350051340001301 167444.36460268 0.87288082604120698083 29.28558687665359983 195.23724584435700535 16251.556996285800778
  19840000   0.5            300.97299     -50.419085      3054.035       167444.36      0.87288083     16251.557    
19844000 297.543136082846 -397.34853413042 3054.0011003448098563 167444.36460268 0.87288082604120598162 29.28558687665359983 195.23724584435700535 16254.81652993769967
  19844000   0.5            297.54314     -397.34853      3054.0011      167444.36      0.87288083     16254.817    
19848000 299.413322353321 -30.9845061986183 3053.443769506659919 167444.36460268 0.87288082604120698083 29.28558687665359983 195.23724584435700535 16257.994576264700299
  19848000   0.5            299.41332     -30.984506      3053.4438      167444.36      0.87288083     16257.995    
19850000 356.0683 253.0034
19852000 299.57444215862 156.440130334103 3053.2244062963000033 167444.36460268 0.87288082604120598162 29.28558687665359983 195.23724584435700535 16261.472292660899257
  19852000   0.5            299.57444      156.44013      3053.2244      167444.36      0.87288083     16261.472    
19856000 302.14717761047 -106.688023928427 3053.1867613156400694 167444.36460268 0.87288082604120598162 29.28558687665359983 195.23724584435700535 16263.989841791299114
  19856000   0.5            302.14718     -106.68802      3053.1868      167444.36      0.87288083     16263.99     
19860000 335.9384 262.3350
19860000 301.237046946462 198.345667673312 3053.0947103030898688 167444.36460268 0.87288082604120698083 29.28558687665359983 195.23724584435700535 16267.055240730000151
  19860000   0.5            301.23705      198.34567      3053.0947      167444.36      0.87288083     16267.055    
19864000 299.121465539354 384.669688292441 3053.3574764041500202 167444.36460268 0.87288082604120698083 29.28558687665359983 195.23724584435700535 16269.528334874299617
  19864000   0.5            299.12147      384.66969      3053.3575      167444.36      0.87288083     16269.528    
19868000 299.422501027675 -151.448031726292 3053.8873344620101307 167444.36460268 0.87288082604120598162 29.28558687665359983 195.23724584435700535 16273.060598976400797
  19868000   0.5            299.4225      -151.44803      3053.8873      167444.36      0.87288083     16273.061    
19870000 332.3947 257.2563
19872000 298.172889706872 177.032860670726 3054.0214174684801947 167444.36460268 0.87288082604120698083 29.28558687665359983 195.23724584435700535 16277.352782957899763
  19872000   0.5            298.17289      177.03286      3054.0214      167444.36      0.87288083     16277.353    
19876000 297.888299383336 462.29775376837 3054.0298469629101419 167444.36460268 0.87288082604120698083 29.28558687665359983 195.23724584435700535 16283.005893025499972
  19876000   0.5            297.8883       462.29775      3054.0298      167444.36      0.87288083     16283.006    
19880000 347.7710 256.4513
19880000 298.99570598183 633.086325921121 3053.9280227685799218 167444.36460268 0.87288082604120698083 29.28558687665359983 195.23724584435700535 16285.629422759600857
  19880000   0.5            298.99571      633.08633      3053.928       167444.36      0.87288083     16285.629    
19884000 297.296803260086 134.759802293306 3054.0986129928000992 167444.36460268 0.87288082604120698083 29.28558687665359983 195.23724584435700535 16289.318345473799127
  19884000   0.5            297.2968       134.7598       3054.0986      167444.36      0.87288083     16289.318    
19888000 298.421388334773 50.2198222347997 3054.2377559554001891 167444.36460268 0.87288082604120698083 29.28558687665359983 195.23724584435700535 16293.234526252799697
  19888000   0.5            298.42139      50.219822      3054.2378      167444.36      0.87288083     16293.235    
19890000 369.4076 255.2597
19892000 297.186628397562 -228.946471986356 3053.9273966105301952 167444.36460268 0.87288082604120598162 29.28558687665359983 195.23724584435700535 16295.912065162499857
  19892000   0.5            297.18663     -228.94647      3053.9274      167444.36      0.87288083     16295.912    
19896000 299.272970568516 -231.886869659325 3053.9148613802299224 167444.36460268 0.87288082604120598162 29.28558687665359983 195.23724584435700535 16298.666691293499753
  19896000   0.5            299.27297     -231.88687      3053.9149      167444.36      0.87288083     16298.667    
19900000 361.7128 251.6196
19900000 299.773859853326 390.851120691434 3053.7466321925999182 167444.36460268 0.87288082604120598162 29.28558687665359983 195.23724584435700535 16301.591188698899714
  19900000   0.5            299.77386      390.85112      3053.7466      167444.36      0.87288083     16301.591    
19904000 298.689611095631 -179.307773336663 3053.72847884039993 167444.36460268 0.87288082604120598162 29.28558687665359983 195.23724584435700535 16306.229219186499904
  19904000   0.5            298.68961     -179.30777      3053.7285      167444.36      0.87288083     16306.229    
19908000 300.019293815041 39.6202542770863 3053.7256581067399566 167444.36460268 0.87288082604120598162 29.28558687665359983 195.23724584435700535 16309.961939120999887
  19908000   0.5            300.01929      39.620254      3053.7257      167444.36      0.87288083     16309.962    
19910000 364.9558 249.7411
19912000 298.855125723629 389.178807307849 3053.4635569948600278 167444.36460268 0.87288082604120698083 29.28558687665359983 195.23724584435700535 16313.030156038699715
  19912000   0.5            298.85513      389.17881      3053.4636      167444.36      0.87288083     16313.03     
19916000 298.4320447941 -270.107423202619 3053.3895877309300886 167444.36460268 0.87288082604120598162 29.28558687665359983 195.23724584435700535 16318.018171753399656
  19916000   0.5            298.43204     -270.10742      3053.3896      167444.36      0.87288083     16318.018    
19920000 340.2329 254.5679
19920000 301.176383529669 -76.9215459086517 3053.5841268318099537 167444.36460268 0.87288082604120598162 29.28558687665359983 195.23724584435700535 16320.451506149400302
  19920000   0.5            301.17638     -76.921546      3053.5841      167444.36      0.87288083     16320.452    
19924000 299.485502745672 -57.4360047282661 3053.6145612178502233 167444.36460268 0.87288082604120598162 29.28558687665359983 195.23724584435700535 16323.301663213700522
  19924000   0.5            299.4855      -57.436005      3053.6146      167444.36      0.87288083     16323.302    
19928000 301.797560081243 379.842391418164 3053.4903189170099722 167444.36460268 0.87288082604120698083 29.28558687665359983 195.23724584435700535 16328.903947463200893
  19928000   0.5            301.79756      379.84239      3053.4903      167444.36      0.87288083     16328.904    
19930000 339.7298 240.9354
19932000 300.442121244044 646.695382821527 3053.6517052777699064 167444.36460268 0.87288082604120598162 29.28558687665359983 195.23724584435700535 16332.443476095300866
  19932000   0.5            300.44212      646.69538      3053.6517      167444.36      0.87288083     16332.443    
19936000 302.622083516441 85.2854804626454 3053.4602796854401277 167444.36460268 0.87288082604120598162 29.28558687665359983 195.23724584435700535 16335.368407334099174
  19936000   0.5            302.62208      85.28548       3053.4603      167444.36      0.87288083     16335.368    
19940000 365.2675 250.2985
19940000 303.10481884131 353.43982315854 3053.381728443369866 167444.36460268 0.87288082604120598162 29.28558687665359983 195.23724584435700535 16338.059911079399171
  19940000   0.5            303.10482      353.43982      3053.3817      167444.36      0.87288083     16338.06     
19944000 302.875901903775 484.290188819433 3053.2936114057301893 167444.36460268 0.87288082604120698083 29.28558687665359983 195.23724584435700535 16341.044996336600889
  19944000   0.5            302.8759       484.29019      3053.2936      167444.36      0.87288083     16341.045    
19948000 303.814904837531 828.723087812976 3053.0766421948701463 167444.36460268 0.87288082604120698083 29.28558687665359983 195.23724584435700535 16343.302934713499781
  19948000   0.5            303.8149       828.72309      3053.0766      167444.36      0.87288083     16343.303    
19950000 361.7951 248.8494
19952000 300.546576320351 403.692855851891 3053.3183298198400735 167444.36460268 0.87288082604120698083 29.28558687665359983 195.23724584435700535 16346.008810113100481
  19952000   0.5            300.54658      403.69286      3053.3183      167444.36      0.87288083     16346.009    
19956000 298.201872239832 19.1959429850824 3053.5503354608799782 167444.36460268 0.87288082604120598162 29.28558687665359983 195.23724584435700535 16348.689026484400529
  19956000   0.5            298.20187      19.195943      3053.5503      167444.36      0.87288083     16348.689    
19960000 349.3099 248.9971
19960000 300.893731190972 97.66773877931 3053.6219515019802202 167444.36460268 0.87288082604120598162 29.28558687665359983 195.23724584435700535 16352.547739273899424
  19960000   0.5            300.89373      97.667739      3053.622       167444.36      0.87288083     16352.548    
19964000 297.926735632115 -7.25775421799455 3053.7001712240198685 167444.36460268 0.87288082604120598162 29.28558687665359983 195.23724584435700535 16355.230113369299943
  19964000   0.5            297.92674     -7.2577542      3053.7002      167444.36      0.87288083     16355.23     
19968000 301.315870552375 251.432560801562 3053.3911133586798314 167444.36460268 0.87288082604120598162 29.28558687665359983 195.23724584435700535 16359.015579388900733
  19968000   0.5            301.31587      251.43256      3053.3911      167444.36      0.87288083     16359.016    
19970000 352.8280 250.4206
19972000 297.900585608259 513.454382334469 3053.5291686730602123 167444.36460268 0.87288082604120698083 29.28558687665359983 195.23724584435700535 16362.064573736999591
  19972000   0.5            297.90059      513.45438      3053.5292      167444.36      0.87288083     16362.065    
19976000 302.423330990704 -609.12077276175 3053.5691246453898202 167444.36460268 0.87288082604120698083 29.28558687665359983 195.23724584435700535 16364.768618329699166
  19976000   0.5            302.42333     -609.12077      3053.5691      167444.36      0.87288083     16364.769    
19980000 339.8187 263.5228
19980000 299.66181487877 44.870238817397 3052.9110610486900441 167444.36460268 0.87288082604120698083 29.28558687665359983 195.23724584435700535 16366.791680630700284
  19980000   0.5            299.66181      44.870239      3052.9111      167444.36      0.87288083     16366.792    
19984000 302.94607551692 -120.480556169057 3052.5913644015399768 167444.36460268 0.87288082604120598162 29.28558687665359983 195.23724584435700535 16370.609100836700236
  19984000   0.5            302.94608     -120.48056      3052.5914      167444.36      0.87288083     16370.609    
19988000 300.314836405087 138.935653954884 3053.0079802948398537 167444.36460268 0.87288082604120598162 29.28558687665359983 195.23724584435700535 16375.188853189500151
  19988000   0.5            300.31484      138.93565      3053.008       167444.36      0.87288083     16375.189    
19990000 339.1931 267.6323
19992000 299.314590850543 880.368042777416 3053.1950534245102062 167444.36460268 0.87288082604120598162 29.28558687665359983 195.23724584435700535 16379.428458214399143
  19992000   0.5            299.31459      880.36804      3053.1951      167444.36      0.87288083     16379.428    
19996000 296.254875574151 -49.4548274442051 3053.3952138031099821 167444.36460268 0.87288082604120698083 29.28558687665359983 195.23724584435700535 16384.360676692598645
  19996000   0.5            296.25488     -49.454827      3053.3952      167444.36      0.87288083     16384.361    
20000000 358.7623 266.4976
20000000 301.108623506405 575.471424067752 3053.5122118788499392 167444.36460268 0.87288082604120598162 29.28558687665359983 195.23724584435700535 16388.133862115199008
  20000000   0.5            301.10862      575.47142      3053.5122      167444.36      0.87288083     16388.134    
Loop time of 95345.6 on 36 procs for 20000000 steps with 6000 atoms

Performance: 9.062 ns/day, 2.648 hours/ns, 209.763 timesteps/s, 1.259 Matom-step/s
99.2% CPU use with 36 MPI tasks x no OpenMP threads

MPI task timing breakdown:
Section |  min time  |  avg time  |  max time  |%varavg| %total
---------------------------------------------------------------
Pair    | 9150.8     | 12898      | 16444      |1768.1 | 13.53
Bond    | 96.49      | 110        | 124.82     |  66.9 |  0.12
Kspace  | 66202      | 70648      | 74908      |1012.0 | 74.10
Neigh   | 162.79     | 167.29     | 172.78     |  22.2 |  0.18
Comm    | 7833.9     | 9392       | 10883      | 813.1 |  9.85
Output  | 0.29395    | 2.7933     | 2.8687     |  25.3 |  0.00
Modify  | 64.972     | 72.029     | 86.559     |  55.7 |  0.08
Other   |            | 2055       |            |       |  2.16

Nlocal:        166.667 ave         198 max         138 min
Histogram: 4 2 4 1 7 7 5 1 3 2
Nghost:        3519.19 ave        3840 max        3119 min
Histogram: 3 3 1 4 4 4 4 4 4 5
Neighs:          42341 ave       55855 max       31172 min
Histogram: 4 3 2 4 6 6 6 3 1 1

Total # of neighbors = 1524275
Ave neighs/atom = 254.04583
Ave special neighs/atom = 2
Neighbor list builds = 97073
Dangerous builds = 0
